VARIABLES="w (rad/s)"
"abs(F   1   1)" "angle(F   1   1)"
"abs(F   1   2)" "angle(F   1   2)"
"abs(F   1   3)" "angle(F   1   3)"
"abs(F   1   4)" "angle(F   1   4)"
"abs(F   1   5)" "angle(F   1   5)"
"abs(F   1   6)" "angle(F   1   6)"
Zone t="Diffraction force - beta = -90.000 deg",I=    60,F=POINT
  0.1570800E+01  0.1480402E-01 -0.2010038E-01  0.2471337E+05  0.1573543E+01  0.8146545E+05  0.2160727E+01  0.3802440E+05  0.1575642E+01  0.1152095E+06 -0.9808637E+00  0.3494998E+05  0.1573541E+01
  0.1500845E+01  0.1242898E-01  0.1274283E+01  0.2333252E+05  0.1573068E+01  0.8519593E+05  0.2187902E+01  0.3663253E+05  0.1574756E+01  0.1204851E+06 -0.9536868E+00  0.3299716E+05  0.1573067E+01
  0.1436856E+01  0.2643177E-01  0.1033892E+01  0.2202992E+05  0.1572689E+01  0.8929502E+05  0.2205113E+01  0.3520623E+05  0.1574046E+01  0.1262823E+06 -0.9364727E+00  0.3115502E+05  0.1572688E+01
  0.1378100E+01  0.5387774E-01 -0.8703105E+00  0.2081582E+05  0.1572384E+01  0.9383571E+05  0.2213781E+01  0.3378074E+05  0.1573481E+01  0.1327059E+06 -0.9278089E+00  0.2943800E+05  0.1572385E+01
  0.1323960E+01  0.2903524E-01 -0.2055128E+01  0.1968373E+05  0.1572134E+01  0.9883776E+05  0.2214962E+01  0.3237336E+05  0.1573030E+01  0.1397782E+06 -0.9266353E+00  0.2783701E+05  0.1572136E+01
  0.1273913E+01  0.1906131E-01 -0.2871760E+01  0.1862023E+05  0.1571931E+01  0.1044192E+06  0.2208356E+01  0.3098284E+05  0.1572667E+01  0.1476713E+06 -0.9332379E+00  0.2633298E+05  0.1571932E+01
  0.1227513E+01  0.2851208E-01 -0.1223488E+01  0.1762573E+05  0.1571762E+01  0.1105606E+06  0.2193835E+01  0.2963313E+05  0.1572370E+01  0.1563564E+06 -0.9477596E+00  0.2492652E+05  0.1571758E+01
  0.1184373E+01  0.1002692E-01 -0.1473248E+01  0.1670269E+05  0.1571613E+01  0.1172227E+06  0.2173166E+01  0.2833524E+05  0.1572118E+01  0.1657782E+06 -0.9684273E+00  0.2362115E+05  0.1571612E+01
  0.1144163E+01  0.2246519E-01 -0.2366761E+01  0.1584292E+05  0.1571487E+01  0.1245827E+06  0.2142550E+01  0.2709256E+05  0.1571911E+01  0.1761867E+06 -0.9990444E+00  0.2240527E+05  0.1571486E+01
  0.1106593E+01  0.1247408E-01  0.2416779E+01  0.1503584E+05  0.1571387E+01  0.1326709E+06  0.2100080E+01  0.2590224E+05  0.1571741E+01  0.1876250E+06 -0.1041514E+01  0.2126385E+05  0.1571385E+01
  0.1071413E+01  0.5021591E-01 -0.8154837E+00  0.1428271E+05  0.1571301E+01  0.1413933E+06  0.2045902E+01  0.2477270E+05  0.1571598E+01  0.1999605E+06 -0.1095692E+01  0.2019879E+05  0.1571302E+01
  0.1038400E+01  0.2158292E-01 -0.1545342E+01  0.1358167E+05  0.1571234E+01  0.1505408E+06  0.1980334E+01  0.2369703E+05  0.1571482E+01  0.2128970E+06 -0.1161259E+01  0.1920738E+05  0.1571230E+01
  0.1007361E+01  0.1848650E-01 -0.2649888E+01  0.1292427E+05  0.1571171E+01  0.1598838E+06  0.1902360E+01  0.2267010E+05  0.1571385E+01  0.2261099E+06 -0.1239233E+01  0.1827761E+05  0.1571170E+01
  0.9781234E+00  0.2044641E-01  0.8932583E+00  0.1231293E+05  0.1571119E+01  0.1688499E+06  0.1810080E+01  0.2169927E+05  0.1571302E+01  0.2387900E+06 -0.1331513E+01  0.1741321E+05  0.1571118E+01
  0.9505354E+00  0.1990130E-01  0.1123608E+01  0.1173736E+05  0.1571077E+01  0.1767146E+06  0.1702576E+01  0.2077725E+05  0.1571233E+01  0.2499122E+06 -0.1439017E+01  0.1659911E+05  0.1571072E+01
  0.9244608E+00  0.2100975E-01 -0.1655144E+01  0.1119870E+05  0.1571038E+01  0.1824882E+06  0.1582423E+01  0.1990454E+05  0.1571174E+01  0.2580773E+06 -0.1559170E+01  0.1583733E+05  0.1571038E+01
  0.8997786E+00  0.3077852E-01  0.1715568E+01  0.1069604E+05  0.1571007E+01  0.1851762E+06  0.1452626E+01  0.1908097E+05  0.1571123E+01  0.2618788E+06 -0.1688967E+01  0.1512638E+05  0.1571007E+01
  0.8763802E+00  0.5733397E-01 -0.1598478E+01  0.1022255E+05  0.1570980E+01  0.1841728E+06  0.1317331E+01  0.1830043E+05  0.1571081E+01  0.2604596E+06 -0.1824262E+01  0.1445697E+05  0.1570980E+01
  0.8541677E+00  0.1183090E-01 -0.1663792E+01  0.9781446E+04  0.1570956E+01  0.1793710E+06  0.1182715E+01  0.1756459E+05  0.1571044E+01  0.2536690E+06 -0.1958878E+01  0.1383314E+05  0.1570956E+01
  0.8330535E+00  0.1680802E-01  0.1164832E+01  0.9362974E+04  0.1570937E+01  0.1710695E+06  0.1052290E+01  0.1686406E+05  0.1571013E+01  0.2419288E+06 -0.2089303E+01  0.1324132E+05  0.1570937E+01
  0.8129578E+00  0.1319592E-01 -0.2502254E+01  0.8969900E+04  0.1570922E+01  0.1610420E+06  0.9343506E+00  0.1620145E+05  0.1570988E+01  0.2277479E+06 -0.2207242E+01  0.1268536E+05  0.1570923E+01
  0.7938089E+00  0.2224371E-01  0.2002533E+01  0.8600871E+04  0.1570906E+01  0.1498548E+06  0.8288890E+00  0.1557371E+05  0.1570957E+01  0.2119266E+06 -0.2312704E+01  0.1216343E+05  0.1570906E+01
  0.7755414E+00  0.1070502E-01 -0.2917358E+01  0.8254139E+04  0.1570896E+01  0.1384020E+06  0.7363671E+00  0.1497925E+05  0.1570944E+01  0.1957300E+06 -0.2405226E+01  0.1167313E+05  0.1570892E+01
  0.7580957E+00  0.1036250E-02  0.1808632E+01  0.7926859E+04  0.1570879E+01  0.1275666E+06  0.6570011E+00  0.1441592E+05  0.1570927E+01  0.1804065E+06 -0.2484592E+01  0.1121032E+05  0.1570879E+01
  0.7414176E+00  0.3317262E-01  0.1388557E+01  0.7620566E+04  0.1570871E+01  0.1173409E+06  0.5883870E+00  0.1388379E+05  0.1570910E+01  0.1659450E+06 -0.2553206E+01  0.1077710E+05  0.1570871E+01
  0.7254575E+00  0.5824302E-02 -0.9445494E-01  0.7329113E+04  0.1570863E+01  0.1078463E+06  0.5287892E+00  0.1337819E+05  0.1570898E+01  0.1525177E+06 -0.2612803E+01  0.1036493E+05  0.1570865E+01
  0.7101701E+00  0.6627657E-02 -0.1712046E+00  0.7054307E+04  0.1570857E+01  0.9922542E+05  0.4768992E+00  0.1290045E+05  0.1570885E+01  0.1403259E+06 -0.2664694E+01  0.9976336E+04  0.1570850E+01
  0.6955137E+00  0.1156509E-01  0.2411387E+00  0.6794878E+04  0.1570850E+01  0.9126605E+05  0.4314900E+00  0.1244822E+05  0.1570876E+01  0.1290697E+06 -0.2710103E+01  0.9609414E+04  0.1570849E+01
  0.6814499E+00  0.1565350E-01 -0.3054728E+01  0.6550476E+04  0.1570844E+01  0.8445273E+05  0.3929988E+00  0.1202009E+05  0.1570866E+01  0.1194342E+06 -0.2748594E+01  0.9263760E+04  0.1570843E+01
  0.6679438E+00  0.2630699E-01  0.2769380E+01  0.6319084E+04  0.1570839E+01  0.7822154E+05  0.3592095E+00  0.1161335E+05  0.1570859E+01  0.1106220E+06 -0.2782383E+01  0.8936502E+04  0.1570838E+01
  0.6549624E+00  0.5979051E-02  0.2806122E+01  0.6100467E+04  0.1570836E+01  0.7263378E+05  0.3296410E+00  0.1122780E+05  0.1570850E+01  0.1027197E+06 -0.2811952E+01  0.8627377E+04  0.1570836E+01
  0.6424763E+00  0.4415910E-02 -0.6407368E+00  0.5895199E+04  0.1570830E+01  0.6760684E+05  0.3036593E+00  0.1086287E+05  0.1570848E+01  0.9561052E+05 -0.2837934E+01  0.8337066E+04  0.1570834E+01
  0.6304572E+00  0.2442264E-02 -0.1272757E+01  0.5699797E+04  0.1570827E+01  0.6308329E+05  0.2806820E+00  0.1051521E+05  0.1570844E+01  0.8921327E+05 -0.2860911E+01  0.8060733E+04  0.1570828E+01
  0.6188794E+00  0.1391565E-02 -0.3075754E+01  0.5515231E+04  0.1570822E+01  0.5902948E+05  0.2602101E+00  0.1018611E+05  0.1570836E+01  0.8348029E+05 -0.2881382E+01  0.7799722E+04  0.1570825E+01
  0.6077194E+00  0.9643771E-02 -0.2706928E+00  0.5340308E+04  0.1570822E+01  0.5525266E+05  0.2414841E+00  0.9874025E+04  0.1570832E+01  0.7813909E+05 -0.2900109E+01  0.7552343E+04  0.1570821E+01
  0.5969545E+00  0.1705984E-02  0.7474418E+00  0.5175276E+04  0.1570821E+01  0.5208612E+05  0.2253394E+00  0.9578509E+04  0.1570831E+01  0.7366088E+05 -0.2916253E+01  0.7318950E+04  0.1570821E+01
  0.5865645E+00  0.9980733E-02 -0.1249239E+00  0.5019817E+04  0.1570817E+01  0.4892877E+05  0.2104134E+00  0.9298639E+04  0.1570824E+01  0.6919577E+05 -0.2931180E+01  0.7099098E+04  0.1570816E+01
  0.5765300E+00  0.3962007E-02 -0.2234711E+01  0.4871669E+04  0.1570813E+01  0.4623873E+05  0.1973877E+00  0.9032150E+04  0.1570824E+01  0.6539143E+05 -0.2944205E+01  0.6889578E+04  0.1570814E+01
  0.5668330E+00  0.6341564E-02  0.2977235E+01  0.4731529E+04  0.1570813E+01  0.4381196E+05  0.1856928E+00  0.8779943E+04  0.1570822E+01  0.6195947E+05 -0.2955900E+01  0.6691396E+04  0.1570814E+01
  0.5574569E+00  0.7874941E-02 -0.3122700E+01  0.4598256E+04  0.1570811E+01  0.4148295E+05  0.1749517E+00  0.8539512E+04  0.1570820E+01  0.5866576E+05 -0.2966641E+01  0.6502922E+04  0.1570810E+01
  0.5483858E+00  0.4998273E-03 -0.2595938E+01  0.4472865E+04  0.1570812E+01  0.3936877E+05  0.1652695E+00  0.8312765E+04  0.1570818E+01  0.5567585E+05 -0.2976323E+01  0.6325590E+04  0.1570810E+01
  0.5396053E+00  0.5653994E-02  0.3087591E+01  0.4352201E+04  0.1570805E+01  0.3742473E+05  0.1564855E+00  0.8095646E+04  0.1570817E+01  0.5292658E+05 -0.2985107E+01  0.6154948E+04  0.1570811E+01
  0.5311014E+00  0.5206414E-02 -0.1138128E+00  0.4238047E+04  0.1570808E+01  0.3564834E+05  0.1484455E+00  0.7889741E+04  0.1570815E+01  0.5041436E+05 -0.2993147E+01  0.5993508E+04  0.1570805E+01
  0.5228614E+00  0.2465746E-02 -0.1898418E+01  0.4129531E+04  0.1570807E+01  0.3398056E+05  0.1408784E+00  0.7693897E+04  0.1570812E+01  0.4805576E+05 -0.3000714E+01  0.5840039E+04  0.1570807E+01
  0.5148733E+00  0.4874665E-02 -0.3087570E+01  0.4026417E+04  0.1570805E+01  0.3245073E+05  0.1340105E+00  0.7507273E+04  0.1570812E+01  0.4589230E+05 -0.3007582E+01  0.5694215E+04  0.1570806E+01
  0.5071256E+00  0.3243482E-02 -0.2470086E-01  0.3928333E+04  0.1570806E+01  0.3104063E+05  0.1277821E+00  0.7329102E+04  0.1570810E+01  0.4389810E+05 -0.3013811E+01  0.5555500E+04  0.1570804E+01
  0.4996075E+00  0.3903504E-02 -0.3006813E+01  0.3835522E+04  0.1570805E+01  0.2973340E+05  0.1220831E+00  0.7159734E+04  0.1570810E+01  0.4204935E+05 -0.3019510E+01  0.5424247E+04  0.1570806E+01
  0.4923092E+00  0.2437440E-02 -0.2442195E+00  0.3746583E+04  0.1570805E+01  0.2852157E+05  0.1168778E+00  0.6997306E+04  0.1570808E+01  0.4033559E+05 -0.3024715E+01  0.5298470E+04  0.1570802E+01
  0.4852209E+00  0.1841851E-02 -0.5564039E+00  0.3661732E+04  0.1570804E+01  0.2738911E+05  0.1120942E+00  0.6842485E+04  0.1570807E+01  0.3873405E+05 -0.3029499E+01  0.5178470E+04  0.1570803E+01
  0.4783339E+00  0.3861266E-02 -0.2025415E-01  0.3580724E+04  0.1570803E+01  0.2633246E+05  0.1076953E+00  0.6694377E+04  0.1570808E+01  0.3723973E+05 -0.3033898E+01  0.5063909E+04  0.1570804E+01
  0.4716397E+00  0.3880720E-02  0.2918072E+01  0.3503263E+04  0.1570803E+01  0.2535395E+05  0.1036417E+00  0.6552619E+04  0.1570807E+01  0.3585589E+05 -0.3037951E+01  0.4954362E+04  0.1570801E+01
  0.4651302E+00  0.4550281E-02  0.1578440E+00  0.3429810E+04  0.1570803E+01  0.2455160E+05  0.1000332E+00  0.6417729E+04  0.1570804E+01  0.3472121E+05 -0.3041560E+01  0.4850485E+04  0.1570801E+01
  0.4587980E+00  0.2534313E-02 -0.2697804E+01  0.3358867E+04  0.1570801E+01  0.2355904E+05  0.9644115E-01  0.6287847E+04  0.1570806E+01  0.3331753E+05 -0.3045152E+01  0.4750158E+04  0.1570802E+01
  0.4526359E+00  0.2468156E-03  0.7799339E+00  0.3290940E+04  0.1570802E+01  0.2272135E+05  0.9318561E-01  0.6163366E+04  0.1570804E+01  0.3213285E+05 -0.3048407E+01  0.4654093E+04  0.1570800E+01
  0.4466371E+00  0.4496814E-03 -0.1828120E+01  0.3225939E+04  0.1570802E+01  0.2195341E+05  0.9012972E-01  0.6044054E+04  0.1570804E+01  0.3104682E+05 -0.3051463E+01  0.4562170E+04  0.1570801E+01
  0.4407952E+00  0.1821054E-02 -0.7600874E-01  0.3163480E+04  0.1570800E+01  0.2121791E+05  0.8722652E-01  0.5929751E+04  0.1570803E+01  0.3000667E+05 -0.3054366E+01  0.4473837E+04  0.1570802E+01
  0.4351042E+00  0.1162585E-02 -0.1250343E+01  0.3103498E+04  0.1570801E+01  0.2052804E+05  0.8452026E-01  0.5819769E+04  0.1570802E+01  0.2903104E+05 -0.3057072E+01  0.4389013E+04  0.1570799E+01
  0.4295583E+00  0.5167621E-03 -0.3760513E+00  0.3046105E+04  0.1570801E+01  0.1987640E+05  0.8201177E-01  0.5714299E+04  0.1570804E+01  0.2810947E+05 -0.3059581E+01  0.4307844E+04  0.1570801E+01
  0.4241519E+00  0.3634223E-02  0.3103534E+01  0.2990807E+04  0.1570799E+01  0.1925399E+05  0.7967106E-01  0.5612575E+04  0.1570801E+01  0.2722928E+05 -0.3061922E+01  0.4229640E+04  0.1570801E+01
  0.4188800E+00  0.1405342E-02 -0.2805368E+00  0.2937905E+04  0.1570801E+01  0.1867607E+05  0.7747981E-01  0.5515086E+04  0.1570802E+01  0.2641194E+05 -0.3064113E+01  0.4154827E+04  0.1570799E+01
Zone t="Diffraction force - beta = -70.000 deg",I=    60,F=POINT
  0.1570800E+01  0.7052585E+04 -0.1445861E+01  0.2305488E+05  0.1695240E+01  0.8093031E+05  0.2282021E+01  0.3547362E+05  0.1697338E+01  0.8696554E+05 -0.4485474E+00  0.3285200E+05  0.1815513E+01
  0.1500845E+01  0.6174497E+04 -0.1428929E+01  0.2179312E+05  0.1684168E+01  0.8472511E+05  0.2298633E+01  0.3421640E+05  0.1685856E+01  0.9335720E+05 -0.2931449E+00  0.3101422E+05  0.1793993E+01
  0.1436856E+01  0.4740418E+04 -0.1236329E+01  0.2059647E+05  0.1674520E+01  0.8887674E+05  0.2306614E+01  0.3291603E+05  0.1675876E+01  0.1252510E+06  0.3387700E-01  0.2928120E+05  0.1775193E+01
  0.1378100E+01  0.1002093E+05 -0.9020025E+00  0.1947660E+05  0.1666056E+01  0.9346342E+05  0.2307163E+01  0.3160787E+05  0.1667152E+01  0.3007763E+06 -0.5014932E+00  0.2766640E+05  0.1758669E+01
  0.1323960E+01  0.8405874E+04 -0.1388963E+01  0.1842907E+05  0.1658589E+01  0.9850409E+05  0.2301166E+01  0.3031023E+05  0.1659486E+01  0.1922073E+06 -0.9226540E+00  0.2616104E+05  0.1744083E+01
  0.1273913E+01  0.7232065E+04 -0.1455650E+01  0.1744252E+05  0.1651973E+01  0.1041174E+06  0.2288179E+01  0.2902347E+05  0.1652711E+01  0.1691901E+06 -0.9134774E+00  0.2474705E+05  0.1731137E+01
  0.1227513E+01  0.6558138E+04 -0.1478445E+01  0.1651806E+05  0.1646080E+01  0.1102853E+06  0.2267961E+01  0.2777110E+05  0.1646690E+01  0.1669351E+06 -0.9071034E+00  0.2342491E+05  0.1719593E+01
  0.1184373E+01  0.6066264E+04 -0.1490899E+01  0.1565867E+05  0.1640797E+01  0.1169691E+06  0.2242185E+01  0.2656429E+05  0.1641306E+01  0.1710802E+06 -0.9160144E+00  0.2219785E+05  0.1709239E+01
  0.1144163E+01  0.5667326E+04 -0.1499356E+01  0.1485713E+05  0.1636055E+01  0.1243478E+06  0.2206972E+01  0.2540696E+05  0.1636481E+01  0.1784880E+06 -0.9410810E+00  0.2105506E+05  0.1699938E+01
  0.1106593E+01  0.5324100E+04 -0.1505675E+01  0.1410387E+05  0.1631784E+01  0.1324530E+06  0.2160351E+01  0.2429686E+05  0.1632139E+01  0.1880312E+06 -0.9818622E+00  0.1998217E+05  0.1691541E+01
  0.1071413E+01  0.5020934E+04 -0.1510787E+01  0.1340033E+05  0.1627920E+01  0.1411905E+06  0.2102409E+01  0.2324239E+05  0.1628220E+01  0.1990846E+06 -0.1036765E+01  0.1898123E+05  0.1683943E+01
  0.1038400E+01  0.4747887E+04 -0.1515097E+01  0.1274494E+05  0.1624416E+01  0.1503516E+06  0.2033420E+01  0.2223724E+05  0.1624665E+01  0.2111127E+06 -0.1104528E+01  0.1804950E+05  0.1677044E+01
  0.1007361E+01  0.4498595E+04 -0.1518825E+01  0.1212997E+05  0.1621220E+01  0.1597069E+06  0.1952325E+01  0.2127687E+05  0.1621437E+01  0.2236608E+06 -0.1185563E+01  0.1717577E+05  0.1670756E+01
  0.9781234E+00  0.4270280E+04 -0.1522119E+01  0.1155773E+05  0.1618307E+01  0.1686848E+06  0.1857192E+01  0.2036845E+05  0.1618492E+01  0.2358447E+06 -0.1281394E+01  0.1636317E+05  0.1665017E+01
  0.9505354E+00  0.4059490E+04 -0.1525057E+01  0.1101880E+05  0.1615641E+01  0.1765611E+06  0.1747073E+01  0.1950532E+05  0.1615796E+01  0.2466064E+06 -0.1392728E+01  0.1559834E+05  0.1659753E+01
  0.9244608E+00  0.3866162E+04 -0.1527713E+01  0.1051422E+05  0.1613193E+01  0.1823465E+06  0.1624516E+01  0.1868801E+05  0.1613327E+01  0.2545409E+06 -0.1516834E+01  0.1488249E+05  0.1654917E+01
  0.8997786E+00  0.3686404E+04 -0.1530116E+01  0.1004316E+05  0.1610939E+01  0.1850481E+06  0.1492505E+01  0.1791628E+05  0.1611055E+01  0.2582465E+06 -0.1650609E+01  0.1421439E+05  0.1650469E+01
  0.8763802E+00  0.3517931E+04 -0.1532302E+01  0.9599372E+04  0.1608863E+01  0.1840591E+06  0.1355167E+01  0.1718471E+05  0.1608964E+01  0.2568552E+06 -0.1789851E+01  0.1358510E+05  0.1646365E+01
  0.8541677E+00  0.3361454E+04 -0.1534308E+01  0.9185726E+04  0.1606945E+01  0.1792722E+06  0.1218660E+01  0.1649492E+05  0.1607032E+01  0.2501986E+06 -0.1928340E+01  0.1299886E+05  0.1642574E+01
  0.8330535E+00  0.3213751E+04 -0.1536149E+01  0.8793351E+04  0.1605170E+01  0.1709853E+06  0.1086483E+01  0.1583800E+05  0.1605244E+01  0.2386765E+06 -0.2062582E+01  0.1244269E+05  0.1639064E+01
  0.8129578E+00  0.3075357E+04 -0.1537844E+01  0.8424568E+04  0.1603523E+01  0.1609708E+06  0.9669184E+00  0.1521645E+05  0.1603588E+01  0.2247600E+06 -0.2184170E+01  0.1192047E+05  0.1635802E+01
  0.7938089E+00  0.2945782E+04 -0.1539415E+01  0.8078360E+04  0.1601992E+01  0.1497951E+06  0.8599448E+00  0.1462759E+05  0.1602050E+01  0.2092230E+06 -0.2293157E+01  0.1143001E+05  0.1632774E+01
  0.7755414E+00  0.2824315E+04 -0.1540873E+01  0.7753019E+04  0.1600569E+01  0.1383523E+06  0.7660152E+00  0.1406994E+05  0.1600621E+01  0.1933074E+06 -0.2389077E+01  0.1096921E+05  0.1629959E+01
  0.7580957E+00  0.2710305E+04 -0.1542217E+01  0.7445944E+04  0.1599243E+01  0.1275252E+06  0.6853369E+00  0.1354122E+05  0.1599288E+01  0.1782468E+06 -0.2471668E+01  0.1053425E+05  0.1627333E+01
  0.7414176E+00  0.2604831E+04 -0.1543481E+01  0.7158415E+04  0.1598006E+01  0.1173062E+06  0.6154969E+00  0.1304190E+05  0.1598041E+01  0.1640250E+06 -0.2543396E+01  0.1012719E+05  0.1624876E+01
  0.7254575E+00  0.2504391E+04 -0.1544657E+01  0.6884853E+04  0.1596849E+01  0.1078175E+06  0.5547537E+00  0.1256724E+05  0.1596886E+01  0.1508139E+06 -0.2606006E+01  0.9739865E+04  0.1622585E+01
  0.7101701E+00  0.2409470E+04 -0.1545747E+01  0.6626875E+04  0.1595767E+01  0.9920118E+05  0.5017915E+00  0.1211881E+05  0.1595800E+01  0.1388144E+06 -0.2660805E+01  0.9374683E+04  0.1620436E+01
  0.6955137E+00  0.2319810E+04 -0.1546769E+01  0.6383306E+04  0.1594751E+01  0.9124578E+05  0.4553782E+00  0.1169421E+05  0.1594782E+01  0.1277289E+06 -0.2709075E+01  0.9029955E+04  0.1618431E+01
  0.6814499E+00  0.2235433E+04 -0.1547733E+01  0.6153847E+04  0.1593804E+01  0.8443566E+05  0.4159456E+00  0.1129231E+05  0.1593830E+01  0.1182408E+06 -0.2750212E+01  0.8705115E+04  0.1616549E+01
  0.6679438E+00  0.2155511E+04 -0.1548627E+01  0.5936587E+04  0.1592919E+01  0.7820713E+05  0.3812734E+00  0.1091039E+05  0.1592939E+01  0.1095582E+06 -0.2786585E+01  0.8397603E+04  0.1614787E+01
  0.6549624E+00  0.2080025E+04 -0.1549466E+01  0.5731300E+04  0.1592084E+01  0.7262161E+05  0.3508755E+00  0.1054838E+05  0.1592102E+01  0.1017693E+06 -0.2818645E+01  0.8107104E+04  0.1613125E+01
  0.6424763E+00  0.2009192E+04 -0.1550265E+01  0.5538534E+04  0.1591300E+01  0.6759650E+05  0.3241146E+00  0.1020566E+05  0.1591315E+01  0.9475941E+05 -0.2847030E+01  0.7834284E+04  0.1611574E+01
  0.6304572E+00  0.1941827E+04 -0.1551000E+01  0.5355042E+04  0.1590562E+01  0.6307445E+05  0.3004042E+00  0.9879188E+04  0.1590577E+01  0.8844939E+05 -0.2872323E+01  0.7574626E+04  0.1610112E+01
  0.6188794E+00  0.1878204E+04 -0.1551699E+01  0.5181705E+04  0.1589870E+01  0.5902186E+05  0.2792430E+00  0.9570121E+04  0.1589884E+01  0.8279338E+05 -0.2895016E+01  0.7329343E+04  0.1608734E+01
  0.6077194E+00  0.1817980E+04 -0.1552352E+01  0.5017421E+04  0.1589216E+01  0.5524612E+05  0.2598680E+00  0.9277014E+04  0.1589228E+01  0.7752134E+05 -0.2915964E+01  0.7096884E+04  0.1607437E+01
  0.5969545E+00  0.1761453E+04 -0.1552975E+01  0.4862415E+04  0.1588601E+01  0.5208045E+05  0.2431119E+00  0.8999461E+04  0.1588613E+01  0.7310270E+05 -0.2934067E+01  0.6877566E+04  0.1606217E+01
  0.5865645E+00  0.1708601E+04 -0.1553558E+01  0.4716403E+04  0.1588019E+01  0.4892385E+05  0.2276093E+00  0.8736604E+04  0.1588030E+01  0.6869129E+05 -0.2951113E+01  0.6670976E+04  0.1605061E+01
  0.5765300E+00  0.1658155E+04 -0.1554107E+01  0.4577249E+04  0.1587476E+01  0.4623446E+05  0.2140403E+00  0.8486298E+04  0.1587486E+01  0.6493376E+05 -0.2966028E+01  0.6474084E+04  0.1603980E+01
  0.5668330E+00  0.1610283E+04 -0.1554622E+01  0.4445619E+04  0.1586959E+01  0.4380820E+05  0.2018319E+00  0.8249397E+04  0.1586967E+01  0.6154305E+05 -0.2979523E+01  0.6287857E+04  0.1602949E+01
  0.5574569E+00  0.1564738E+04 -0.1555113E+01  0.4320431E+04  0.1586472E+01  0.4147968E+05  0.1906050E+00  0.8023556E+04  0.1586480E+01  0.5828670E+05 -0.2992115E+01  0.6110752E+04  0.1601986E+01
  0.5483858E+00  0.1521843E+04 -0.1555573E+01  0.4202644E+04  0.1586012E+01  0.3936590E+05  0.1804641E+00  0.7810566E+04  0.1586021E+01  0.5532987E+05 -0.3003582E+01  0.5944124E+04  0.1601072E+01
  0.5396053E+00  0.1480526E+04 -0.1556005E+01  0.4089298E+04  0.1585575E+01  0.3742221E+05  0.1712454E+00  0.7606610E+04  0.1585584E+01  0.5261029E+05 -0.3014089E+01  0.5783758E+04  0.1600208E+01
  0.5311014E+00  0.1441434E+04 -0.1556423E+01  0.3982058E+04  0.1585164E+01  0.3564611E+05  0.1627947E+00  0.7413183E+04  0.1585172E+01  0.5012476E+05 -0.3023786E+01  0.5632051E+04  0.1599380E+01
  0.5228614E+00  0.1404240E+04 -0.1556815E+01  0.3880119E+04  0.1584772E+01  0.3397861E+05  0.1548380E+00  0.7229211E+04  0.1584779E+01  0.4779071E+05 -0.3033001E+01  0.5487848E+04  0.1598609E+01
  0.5148733E+00  0.1368930E+04 -0.1557184E+01  0.3783253E+04  0.1584404E+01  0.3244902E+05  0.1476009E+00  0.7053894E+04  0.1584407E+01  0.4564921E+05 -0.3041453E+01  0.5350814E+04  0.1597873E+01
  0.5071256E+00  0.1335337E+04 -0.1557536E+01  0.3691109E+04  0.1584050E+01  0.3103910E+05  0.1410224E+00  0.6886515E+04  0.1584055E+01  0.4367471E+05 -0.3049204E+01  0.5220464E+04  0.1597174E+01
  0.4996075E+00  0.1303560E+04 -0.1557875E+01  0.3603917E+04  0.1583717E+01  0.2973208E+05  0.1349903E+00  0.6727401E+04  0.1583722E+01  0.4184381E+05 -0.3056383E+01  0.5097133E+04  0.1596511E+01
  0.4923092E+00  0.1273119E+04 -0.1558192E+01  0.3520364E+04  0.1583402E+01  0.2852039E+05  0.1294684E+00  0.6574810E+04  0.1583402E+01  0.4014608E+05 -0.3063014E+01  0.4978935E+04  0.1595881E+01
  0.4852209E+00  0.1244078E+04 -0.1558495E+01  0.3440647E+04  0.1583100E+01  0.2738809E+05  0.1243834E+00  0.6429358E+04  0.1583102E+01  0.3855912E+05 -0.3069191E+01  0.4866169E+04  0.1595278E+01
  0.4783339E+00  0.1216357E+04 -0.1558781E+01  0.3364544E+04  0.1582810E+01  0.2633155E+05  0.1196975E+00  0.6290219E+04  0.1582812E+01  0.3707799E+05 -0.3074945E+01  0.4758524E+04  0.1594705E+01
  0.4716397E+00  0.1189898E+04 -0.1559055E+01  0.3291768E+04  0.1582535E+01  0.2535313E+05  0.1153699E+00  0.6157034E+04  0.1582537E+01  0.3570617E+05 -0.3080297E+01  0.4655579E+04  0.1594157E+01
  0.4651302E+00  0.1164838E+04 -0.1559314E+01  0.3222760E+04  0.1582272E+01  0.2455088E+05  0.1115004E+00  0.6030305E+04  0.1582274E+01  0.3458197E+05 -0.3084893E+01  0.4557966E+04  0.1593638E+01
  0.4587980E+00  0.1140698E+04 -0.1559570E+01  0.3156109E+04  0.1582023E+01  0.2355839E+05  0.1076589E+00  0.5908282E+04  0.1582026E+01  0.3318875E+05 -0.3090047E+01  0.4463688E+04  0.1593144E+01
  0.4526359E+00  0.1117681E+04 -0.1559808E+01  0.3092290E+04  0.1581785E+01  0.2272076E+05  0.1041648E+00  0.5791327E+04  0.1581788E+01  0.3201336E+05 -0.3094585E+01  0.4373416E+04  0.1592669E+01
  0.4466371E+00  0.1095667E+04 -0.1560032E+01  0.3031221E+04  0.1581556E+01  0.2195290E+05  0.1008810E+00  0.5679233E+04  0.1581559E+01  0.3093588E+05 -0.3098843E+01  0.4287039E+04  0.1592214E+01
  0.4407952E+00  0.1074452E+04 -0.1560251E+01  0.2972537E+04  0.1581337E+01  0.2121745E+05  0.9775943E-01  0.5571842E+04  0.1581339E+01  0.2990369E+05 -0.3102963E+01  0.4204034E+04  0.1591777E+01
  0.4351042E+00  0.1054067E+04 -0.1560464E+01  0.2916182E+04  0.1581127E+01  0.2052762E+05  0.9484432E-01  0.5468509E+04  0.1581131E+01  0.2893541E+05 -0.3106849E+01  0.4124322E+04  0.1591359E+01
  0.4295583E+00  0.1034531E+04 -0.1560664E+01  0.2862259E+04  0.1580928E+01  0.1987602E+05  0.9213549E-01  0.5369417E+04  0.1580930E+01  0.2802060E+05 -0.3110517E+01  0.4048050E+04  0.1590964E+01
  0.4241519E+00  0.1015711E+04 -0.1560857E+01  0.2810304E+04  0.1580735E+01  0.1925367E+05  0.8960224E-01  0.5273842E+04  0.1580737E+01  0.2714665E+05 -0.3114013E+01  0.3974562E+04  0.1590573E+01
  0.4188800E+00  0.9977026E+03 -0.1561049E+01  0.2760600E+04  0.1580547E+01  0.1867578E+05  0.8722589E-01  0.5182248E+04  0.1580551E+01  0.2633509E+05 -0.3117301E+01  0.3904259E+04  0.1590209E+01
Zone t="Diffraction force - beta = -50.000 deg",I=    60,F=POINT
  0.1570800E+01  0.1297216E+05 -0.1338795E+01  0.1844887E+05  0.1802257E+01  0.7958402E+05  0.2388005E+01  0.2838855E+05  0.1804351E+01  0.8045328E+05  0.1791222E+00  0.2678766E+05  0.2028313E+01
  0.1500845E+01  0.1138746E+05 -0.1330823E+01  0.1749378E+05  0.1781865E+01  0.8353980E+05  0.2395385E+01  0.2746779E+05  0.1783552E+01  0.1006420E+06  0.3818763E+00  0.2528774E+05  0.1988283E+01
  0.1436856E+01  0.8750719E+04 -0.1143656E+01  0.1657441E+05  0.1764065E+01  0.8782288E+05  0.2395322E+01  0.2648949E+05  0.1765416E+01  0.1831869E+06  0.6020929E+00  0.2387376E+05  0.1953280E+01
  0.1378100E+01  0.1867510E+05 -0.8169414E+00  0.1570471E+05  0.1748424E+01  0.9252518E+05  0.2388799E+01  0.2548758E+05  0.1749521E+01  0.4543946E+06 -0.3357595E+00  0.2255651E+05  0.1922500E+01
  0.1323960E+01  0.1566549E+05 -0.1312496E+01  0.1488430E+05  0.1734619E+01  0.9766265E+05  0.2376549E+01  0.2448087E+05  0.1735511E+01  0.2379180E+06 -0.8896801E+00  0.2132864E+05  0.1895304E+01
  0.1273913E+01  0.1348838E+05 -0.1385118E+01  0.1410635E+05  0.1722362E+01  0.1033561E+06  0.2358006E+01  0.2347286E+05  0.1723099E+01  0.1877700E+06 -0.8852961E+00  0.2017559E+05  0.1871153E+01
  0.1227513E+01  0.1224227E+05 -0.1413028E+01  0.1337350E+05  0.1711435E+01  0.1095908E+06  0.2332827E+01  0.2248471E+05  0.1712042E+01  0.1757515E+06 -0.8685966E+00  0.1909748E+05  0.1849603E+01
  0.1184373E+01  0.1133331E+05 -0.1430028E+01  0.1268937E+05  0.1701640E+01  0.1163290E+06  0.2302602E+01  0.2152737E+05  0.1702147E+01  0.1752227E+06 -0.8695906E+00  0.1809682E+05  0.1830279E+01
  0.1144163E+01  0.1059561E+05 -0.1442553E+01  0.1204911E+05  0.1692837E+01  0.1237547E+06  0.2263381E+01  0.2060530E+05  0.1693259E+01  0.1800086E+06 -0.8903834E+00  0.1716499E+05  0.1812897E+01
  0.1106593E+01  0.9960116E+04 -0.1452558E+01  0.1144564E+05  0.1684895E+01  0.1319029E+06  0.2213140E+01  0.1971778E+05  0.1685257E+01  0.1879191E+06 -0.9297398E+00  0.1629033E+05  0.1797215E+01
  0.1071413E+01  0.9398020E+04 -0.1460994E+01  0.1088066E+05  0.1677713E+01  0.1406783E+06  0.2151916E+01  0.1887229E+05  0.1678008E+01  0.1978793E+06 -0.9852031E+00  0.1547410E+05  0.1783003E+01
  0.1038400E+01  0.8891067E+04 -0.1468324E+01  0.1035337E+05  0.1671180E+01  0.1498734E+06  0.2079940E+01  0.1806462E+05  0.1671436E+01  0.2091387E+06 -0.1054815E+01  0.1471445E+05  0.1770102E+01
  0.1007361E+01  0.8427616E+04 -0.1474802E+01  0.9857744E+04  0.1665237E+01  0.1592598E+06  0.1996120E+01  0.1729144E+05  0.1665450E+01  0.2211282E+06 -0.1138484E+01  0.1400203E+05  0.1758338E+01
  0.9781234E+00  0.8002642E+04 -0.1480618E+01  0.9395962E+04  0.1659804E+01  0.1682676E+06  0.1898496E+01  0.1655887E+05  0.1659985E+01  0.2329001E+06 -0.1237410E+01  0.1333972E+05  0.1747595E+01
  0.9505354E+00  0.7609998E+04 -0.1485867E+01  0.8960527E+04  0.1654830E+01  0.1761734E+06  0.1786090E+01  0.1586184E+05  0.1654986E+01  0.2433678E+06 -0.1352109E+01  0.1271610E+05  0.1737738E+01
  0.9244608E+00  0.7249492E+04 -0.1490643E+01  0.8552401E+04  0.1650259E+01  0.1819886E+06  0.1661431E+01  0.1520116E+05  0.1650396E+01  0.2511239E+06 -0.1479704E+01  0.1213249E+05  0.1728679E+01
  0.8997786E+00  0.6913988E+04 -0.1494999E+01  0.8171102E+04  0.1646055E+01  0.1847245E+06  0.1527484E+01  0.1457674E+05  0.1646172E+01  0.2547742E+06 -0.1617001E+01  0.1158785E+05  0.1720348E+01
  0.8763802E+00  0.6599416E+04 -0.1498987E+01  0.7811525E+04  0.1642178E+01  0.1837722E+06  0.1388358E+01  0.1398427E+05  0.1642279E+01  0.2534405E+06 -0.1759744E+01  0.1107476E+05  0.1712660E+01
  0.8541677E+00  0.6306954E+04 -0.1502659E+01  0.7476310E+04  0.1638592E+01  0.1790226E+06  0.1250198E+01  0.1342533E+05  0.1638680E+01  0.2469374E+06 -0.1901672E+01  0.1059690E+05  0.1705556E+01
  0.8330535E+00  0.6030774E+04 -0.1506043E+01  0.7157956E+04  0.1635273E+01  0.1707721E+06  0.1116488E+01  0.1289252E+05  0.1635349E+01  0.2356428E+06 -0.2039304E+01  0.1014347E+05  0.1698975E+01
  0.8129578E+00  0.5771879E+04 -0.1509171E+01  0.6858792E+04  0.1632193E+01  0.1607908E+06  0.9954993E+00  0.1238826E+05  0.1632258E+01  0.2219939E+06 -0.2164134E+01  0.9717738E+04  0.1692867E+01
  0.7938089E+00  0.5529340E+04 -0.1512076E+01  0.6577635E+04  0.1629332E+01  0.1496444E+06  0.8872021E+00  0.1191029E+05  0.1629388E+01  0.2067379E+06 -0.2276249E+01  0.9317799E+04  0.1687184E+01
  0.7755414E+00  0.5302026E+04 -0.1514768E+01  0.6313416E+04  0.1626666E+01  0.1382268E+06  0.7920392E+00  0.1145739E+05  0.1626718E+01  0.1910978E+06 -0.2375185E+01  0.8942214E+04  0.1681900E+01
  0.7580957E+00  0.5088417E+04 -0.1517280E+01  0.6063932E+04  0.1624183E+01  0.1274206E+06  0.7102111E+00  0.1102794E+05  0.1624225E+01  0.1762923E+06 -0.2460637E+01  0.8587630E+04  0.1676964E+01
  0.7414176E+00  0.4890843E+04 -0.1519622E+01  0.5830269E+04  0.1621867E+01  0.1172186E+06  0.6392972E+00  0.1062213E+05  0.1621906E+01  0.1623011E+06 -0.2535121E+01  0.8255796E+04  0.1672368E+01
  0.7254575E+00  0.4702613E+04 -0.1521805E+01  0.5607861E+04  0.1619700E+01  0.1077442E+06  0.5775505E+00  0.1023640E+05  0.1619736E+01  0.1492979E+06 -0.2600399E+01  0.7940011E+04  0.1668068E+01
  0.7101701E+00  0.4524688E+04 -0.1523840E+01  0.5398120E+04  0.1617676E+01  0.9914007E+05  0.5236486E+00  0.9871775E+04  0.1617706E+01  0.1374834E+06 -0.2657771E+01  0.7642337E+04  0.1664045E+01
  0.6955137E+00  0.4356609E+04 -0.1525749E+01  0.5200039E+04  0.1615775E+01  0.9119466E+05  0.4763555E+00  0.9526491E+04  0.1615805E+01  0.1265613E+06 -0.2708570E+01  0.7361258E+04  0.1660269E+01
  0.6814499E+00  0.4198378E+04 -0.1527538E+01  0.5013395E+04  0.1614002E+01  0.8439268E+05  0.4360979E+00  0.9199583E+04  0.1614028E+01  0.1172138E+06 -0.2752042E+01  0.7096486E+04  0.1656748E+01
  0.6679438E+00  0.4048511E+04 -0.1529215E+01  0.4836631E+04  0.1612335E+01  0.7817097E+05  0.4006515E+00  0.8888872E+04  0.1612354E+01  0.1086546E+06 -0.2790695E+01  0.6845804E+04  0.1653425E+01