VARIABLES="w (rad/s)"
"abs(F   1   1)" "angle(F   1   1)"
"abs(F   1   2)" "angle(F   1   2)"
"abs(F   1   3)" "angle(F   1   3)"
"abs(F   1   4)" "angle(F   1   4)"
"abs(F   1   5)" "angle(F   1   5)"
"abs(F   1   6)" "angle(F   1   6)"
Zone t="Diffraction force - beta = -90.000 deg",I=    60,F=POINT
  0.1570800E+01  0.6001595E-02  0.2890829E+00  0.6636229E+03 -0.1673257E+01  0.1207093E+06  0.2546217E+01  0.2131744E+04 -0.1657341E+01  0.1707087E+06 -0.5953737E+00  0.9384920E+03 -0.1673173E+01
  0.1500845E+01  0.2450983E-01  0.5974778E+00  0.7255227E+03 -0.1643955E+01  0.1261654E+06  0.2558363E+01  0.2133218E+04 -0.1638841E+01  0.1784249E+06 -0.5832267E+00  0.1026058E+04 -0.1643865E+01
  0.1436856E+01  0.3248996E-01  0.8576491E+00  0.7709132E+03 -0.1624901E+01  0.1316278E+06  0.2563500E+01  0.2113668E+04 -0.1624943E+01  0.1861501E+06 -0.5780888E+00  0.1090244E+04 -0.1624908E+01
  0.1378100E+01  0.5265860E-01 -0.8467649E+00  0.7927957E+03 -0.1612470E+01  0.1371981E+06  0.2562378E+01  0.2072775E+04 -0.1614578E+01  0.1940297E+06 -0.5792159E+00  0.1121184E+04 -0.1612514E+01
  0.1323960E+01  0.2471518E-01 -0.1802532E+01  0.7986156E+03 -0.1603765E+01  0.1429157E+06  0.2555645E+01  0.2018996E+04 -0.1606610E+01  0.2021135E+06 -0.5859513E+00  0.1129372E+04 -0.1603822E+01
  0.1273913E+01  0.4629574E-01 -0.3064391E+01  0.8010999E+03 -0.1597122E+01  0.1488650E+06  0.2542809E+01  0.1972135E+04 -0.1600188E+01  0.2105271E+06 -0.5987856E+00  0.1132948E+04 -0.1597198E+01
  0.1227513E+01  0.3799328E-01 -0.7302590E+00  0.7982399E+03 -0.1592113E+01  0.1550008E+06  0.2523760E+01  0.1921207E+04 -0.1595088E+01  0.2192042E+06 -0.6178339E+00  0.1128909E+04 -0.1592047E+01
  0.1184373E+01  0.8631033E-02 -0.1730586E+01  0.7850344E+03 -0.1588165E+01  0.1613221E+06  0.2499657E+01  0.1864087E+04 -0.1590892E+01  0.2281440E+06 -0.6419356E+00  0.1110224E+04 -0.1588171E+01
  0.1144163E+01  0.1591980E-01 -0.2006150E+01  0.7667426E+03 -0.1585109E+01  0.1678196E+06  0.2467368E+01  0.1802984E+04 -0.1587507E+01  0.2373328E+06 -0.6742252E+00  0.1084338E+04 -0.1585033E+01
  0.1106593E+01  0.1344452E-01  0.2357749E+01  0.7508448E+03 -0.1582662E+01  0.1743835E+06  0.2425160E+01  0.1744089E+04 -0.1584861E+01  0.2466155E+06 -0.7164335E+00  0.1061869E+04 -0.1582596E+01
  0.1071413E+01  0.5084391E-01 -0.7683409E+00  0.7327457E+03 -0.1580671E+01  0.1808458E+06  0.2372823E+01  0.1680439E+04 -0.1582589E+01  0.2557546E+06 -0.7687700E+00  0.1036287E+04 -0.1580652E+01
  0.1038400E+01  0.2955668E-01 -0.7689703E+00  0.7111443E+03 -0.1579204E+01  0.1869264E+06  0.2310379E+01  0.1619175E+04 -0.1580829E+01  0.2643539E+06 -0.8312139E+00  0.1005732E+04 -0.1579069E+01
  0.1007361E+01  0.1665036E-01 -0.2665803E+01  0.6912679E+03 -0.1577794E+01  0.1922530E+06  0.2236735E+01  0.1564764E+04 -0.1579299E+01  0.2718869E+06 -0.9048575E+00  0.9776723E+03 -0.1577780E+01
  0.9781234E+00  0.2947246E-01  0.6128467E+00  0.6676770E+03 -0.1576777E+01  0.1960644E+06  0.2150438E+01  0.1508499E+04 -0.1578083E+01  0.2772771E+06 -0.9911544E+00  0.9441222E+03 -0.1576748E+01
  0.9505354E+00  0.2103024E-01  0.1118770E+01  0.6476840E+03 -0.1575850E+01  0.1974970E+06  0.2050757E+01  0.1455913E+04 -0.1577026E+01  0.2793030E+06 -0.1090836E+01  0.9160231E+03 -0.1575785E+01
  0.9244608E+00  0.2052493E-01 -0.1336715E+01  0.6275303E+03 -0.1575110E+01  0.1956788E+06  0.1940243E+01  0.1404508E+04 -0.1576123E+01  0.2767317E+06 -0.1201350E+01  0.8874661E+03 -0.1575077E+01
  0.8997786E+00  0.4000730E-01  0.2242172E+01  0.6054445E+03 -0.1574479E+01  0.1898549E+06  0.1822240E+01  0.1352176E+04 -0.1575384E+01  0.2684955E+06 -0.1319352E+01  0.8563350E+03 -0.1574520E+01
  0.8763802E+00  0.5646735E-01 -0.1554042E+01  0.5859660E+03 -0.1574045E+01  0.1798151E+06  0.1701202E+01  0.1302852E+04 -0.1574739E+01  0.2542969E+06 -0.1440391E+01  0.8285735E+03 -0.1573994E+01
  0.8541677E+00  0.2110268E-01 -0.2595717E+01  0.5635862E+03 -0.1573601E+01  0.1660464E+06  0.1583788E+01  0.1252482E+04 -0.1574335E+01  0.2348252E+06 -0.1557805E+01  0.7969406E+03 -0.1573591E+01
  0.8330535E+00  0.3214141E-01  0.5285273E+00  0.5460690E+03 -0.1573257E+01  0.1492713E+06  0.1474811E+01  0.1208242E+04 -0.1573784E+01  0.2111015E+06 -0.1666782E+01  0.7721819E+03 -0.1573180E+01
  0.8129578E+00  0.2687096E-01 -0.2873268E+01  0.5287142E+03 -0.1572975E+01  0.1318702E+06  0.1381403E+01  0.1165261E+04 -0.1573432E+01  0.1864926E+06 -0.1760190E+01  0.7477156E+03 -0.1572937E+01
  0.7938089E+00  0.2297741E-01  0.1999523E+01  0.5111717E+03 -0.1572582E+01  0.1144655E+06  0.1305807E+01  0.1124539E+04 -0.1573019E+01  0.1618786E+06 -0.1835785E+01  0.7229495E+03 -0.1572631E+01
  0.7755414E+00  0.5977382E-02 -0.2843813E+00  0.4935827E+03 -0.1572445E+01  0.9795188E+05  0.1249874E+01  0.1085628E+04 -0.1572800E+01  0.1385248E+06 -0.1891719E+01  0.6980204E+03 -0.1572367E+01
  0.7580957E+00  0.6383862E-02  0.2878714E+01  0.4773521E+03 -0.1572224E+01  0.8313908E+05  0.1214264E+01  0.1048847E+04 -0.1572630E+01  0.1175763E+06 -0.1927328E+01  0.6750319E+03 -0.1572203E+01
  0.7414176E+00  0.3445783E-01  0.1836048E+01  0.4595599E+03 -0.1572016E+01  0.6986359E+05  0.1200433E+01  0.1012251E+04 -0.1572261E+01  0.9880195E+05 -0.1941160E+01  0.6499312E+03 -0.1572016E+01
  0.7254575E+00  0.2759998E-03  0.9863845E-01  0.4451272E+03 -0.1571861E+01  0.5813594E+05  0.1210697E+01  0.9788203E+03 -0.1572147E+01  0.8221661E+05 -0.1930896E+01  0.6295121E+03 -0.1571941E+01
  0.7101701E+00  0.1444552E-02 -0.2763968E+01  0.4311287E+03 -0.1571847E+01  0.4802575E+05  0.1248118E+01  0.9456716E+03 -0.1572015E+01  0.6791859E+05 -0.1893475E+01  0.6096643E+03 -0.1571677E+01
  0.6955137E+00  0.2693762E-01  0.1232133E+00  0.4177570E+03 -0.1571656E+01  0.3938253E+05  0.1321981E+01  0.9136149E+03 -0.1571954E+01  0.5569524E+05 -0.1819612E+01  0.5907961E+03 -0.1571616E+01
  0.6814499E+00  0.2339017E-01 -0.3107358E+01  0.4044005E+03 -0.1571515E+01  0.3266031E+05  0.1431083E+01  0.8826478E+03 -0.1571714E+01  0.4618859E+05 -0.1710511E+01  0.5719172E+03 -0.1571547E+01
  0.6679438E+00  0.2934350E-01  0.2790886E+01  0.3921549E+03 -0.1571441E+01  0.2750189E+05  0.1588508E+01  0.8541204E+03 -0.1571682E+01  0.3889349E+05 -0.1553084E+01  0.5546290E+03 -0.1571464E+01
  0.6549624E+00  0.1332380E-01  0.2954803E+01  0.3804513E+03 -0.1571468E+01  0.2408655E+05  0.1789685E+01  0.8270286E+03 -0.1571516E+01  0.3406348E+05 -0.1351906E+01  0.5380294E+03 -0.1571479E+01
  0.6424763E+00  0.2148150E-02 -0.1570796E+01  0.3679019E+03 -0.1571463E+01  0.2240707E+05  0.2016773E+01  0.8006916E+03 -0.1571440E+01  0.3168830E+05 -0.1124820E+01  0.5202921E+03 -0.1571406E+01
  0.6304572E+00  0.1115426E-01 -0.1656406E+00  0.3572578E+03 -0.1571214E+01  0.2225339E+05  0.2238470E+01  0.7773254E+03 -0.1571562E+01  0.3147099E+05 -0.9031215E+00  0.5052344E+03 -0.1571318E+01
  0.6188794E+00  0.9878341E-02  0.3456892E-01  0.3468682E+03 -0.1571042E+01  0.2321253E+05  0.2428371E+01  0.7545626E+03 -0.1571322E+01  0.3282750E+05 -0.7132196E+00  0.4905303E+03 -0.1571257E+01
  0.6077194E+00  0.5489261E-02 -0.2739130E+01  0.3372495E+03 -0.1571276E+01  0.2493112E+05  0.2582998E+01  0.7328849E+03 -0.1571342E+01  0.3525792E+05 -0.5585930E+00  0.4769371E+03 -0.1571275E+01
  0.5969545E+00  0.3415983E-02  0.4854987E+00  0.3275528E+03 -0.1571114E+01  0.2685907E+05  0.2693443E+01  0.7117413E+03 -0.1571235E+01  0.3798442E+05 -0.4481490E+00  0.4632271E+03 -0.1571208E+01
  0.5865645E+00  0.9479788E-02 -0.3056129E+01  0.3175186E+03 -0.1571180E+01  0.2915271E+05  0.2783434E+01  0.6911329E+03 -0.1571199E+01  0.4122813E+05 -0.3581577E+00  0.4490342E+03 -0.1571135E+01
  0.5765300E+00  0.1733604E-01 -0.1579046E+00  0.3088443E+03 -0.1571205E+01  0.3132108E+05  0.2847876E+01  0.6723849E+03 -0.1571334E+01  0.4429475E+05 -0.2937156E+00  0.4367754E+03 -0.1571078E+01
  0.5668330E+00  0.5733088E-02  0.2891127E+01  0.3003208E+03 -0.1570989E+01  0.3341625E+05  0.2897099E+01  0.6537491E+03 -0.1571150E+01  0.4725774E+05 -0.2444929E+00  0.4247153E+03 -0.1571061E+01
  0.5574569E+00  0.3009138E-01  0.8335296E-02  0.2925923E+03 -0.1570892E+01  0.3552642E+05  0.2936922E+01  0.6368975E+03 -0.1571080E+01  0.5024192E+05 -0.2046702E+00  0.4137827E+03 -0.1571021E+01
  0.5483858E+00  0.9064284E-02  0.3130440E+01  0.2841816E+03 -0.1570932E+01  0.3751225E+05  0.2968062E+01  0.6191377E+03 -0.1571016E+01  0.5305032E+05 -0.1735298E+00  0.4018897E+03 -0.1571093E+01
  0.5396053E+00  0.1633551E-02  0.2727310E+01  0.2778047E+03 -0.1570847E+01  0.3938821E+05  0.2992967E+01  0.6037930E+03 -0.1571182E+01  0.5570332E+05 -0.1486253E+00  0.3928687E+03 -0.1571067E+01
  0.5311014E+00  0.2189782E-01 -0.1154129E-01  0.2712617E+03 -0.1570911E+01  0.4113848E+05  0.3013076E+01  0.5885356E+03 -0.1570997E+01  0.5817858E+05 -0.1285163E+00  0.3836196E+03 -0.1570961E+01
  0.5228614E+00  0.2224528E-01 -0.8974195E-01  0.2650210E+03 -0.1570959E+01  0.4280675E+05  0.3029898E+01  0.5738652E+03 -0.1570973E+01  0.6053795E+05 -0.1116935E+00  0.3748008E+03 -0.1571048E+01
  0.5148733E+00  0.1048291E-01  0.3136771E+01  0.2589822E+03 -0.1570945E+01  0.4435953E+05  0.3043695E+01  0.5599951E+03 -0.1571005E+01  0.6273375E+05 -0.9789727E-01  0.3662583E+03 -0.1570885E+01
  0.5071256E+00  0.5915127E-01  0.4409554E-02  0.2531462E+03 -0.1570914E+01  0.4580831E+05  0.3055132E+01  0.5470723E+03 -0.1570913E+01  0.6478269E+05 -0.8645998E-01  0.3580063E+03 -0.1570947E+01
  0.4996075E+00  0.2321728E-01 -0.3132176E+01  0.2469590E+03 -0.1571043E+01  0.4716488E+05  0.3064745E+01  0.5342012E+03 -0.1570999E+01  0.6670118E+05 -0.7684746E-01  0.3492500E+03 -0.1571038E+01
  0.4923092E+00  0.1372037E-01 -0.1993271E-01  0.2415071E+03 -0.1570948E+01  0.4843350E+05  0.3072868E+01  0.5226958E+03 -0.1570907E+01  0.6849528E+05 -0.6872458E-01  0.3415483E+03 -0.1570981E+01
  0.4852209E+00  0.1354341E-01 -0.4936415E-01  0.2363057E+03 -0.1570877E+01  0.4962760E+05  0.3079818E+01  0.5114077E+03 -0.1570953E+01  0.7018402E+05 -0.6177371E-01  0.3341846E+03 -0.1570915E+01
  0.4783339E+00  0.7586429E-02  0.2721914E-01  0.2313245E+03 -0.1570953E+01  0.5074917E+05  0.3085791E+01  0.5007637E+03 -0.1570987E+01  0.7177013E+05 -0.5580125E-01  0.3271426E+03 -0.1570945E+01
  0.4716397E+00  0.1603346E-01  0.7261483E-01  0.2266279E+03 -0.1570865E+01  0.5179458E+05  0.3090928E+01  0.4906939E+03 -0.1571078E+01  0.7324860E+05 -0.5066448E-01  0.3204985E+03 -0.1570871E+01
  0.4651302E+00  0.1152551E-01  0.8668010E-01  0.2215007E+03 -0.1571037E+01  0.5266650E+05  0.3095021E+01  0.4802510E+03 -0.1570757E+01  0.7448162E+05 -0.4657162E-01  0.3132466E+03 -0.1570834E+01
  0.4587980E+00  0.1243977E-02 -0.2434879E+01  0.2172429E+03 -0.1570790E+01  0.5372523E+05  0.3099355E+01  0.4709292E+03 -0.1570992E+01  0.7597895E+05 -0.4223735E-01  0.3072300E+03 -0.1571014E+01
  0.4526359E+00  0.3353408E-01  0.1313207E-01  0.2131475E+03 -0.1570957E+01  0.5463036E+05  0.3102882E+01  0.4619756E+03 -0.1570859E+01  0.7725905E+05 -0.3871045E-01  0.3014360E+03 -0.1570900E+01
  0.4466371E+00  0.2123319E-01 -0.3134159E+01  0.2091130E+03 -0.1570796E+01  0.5546513E+05  0.3105959E+01  0.4532905E+03 -0.1570955E+01  0.7843959E+05 -0.3563312E-01  0.2957261E+03 -0.1570893E+01
  0.4407952E+00  0.1426748E-01  0.8489097E-02  0.2053491E+03 -0.1570884E+01  0.5626639E+05  0.3108735E+01  0.4447261E+03 -0.1570707E+01  0.7957276E+05 -0.3285702E-01  0.2904072E+03 -0.1570970E+01
  0.4351042E+00  0.9895489E-03 -0.2086835E+01  0.2017537E+03 -0.1570850E+01  0.5702100E+05  0.3111196E+01  0.4366519E+03 -0.1570695E+01  0.8063984E+05 -0.3039648E-01  0.2853184E+03 -0.1570840E+01
  0.4295583E+00  0.2297217E-01  0.2189880E-02  0.1980676E+03 -0.1570943E+01  0.5773611E+05  0.3113387E+01  0.4286406E+03 -0.1570976E+01  0.8165119E+05 -0.2820573E-01  0.2801108E+03 -0.1570905E+01
  0.4241519E+00  0.2836146E-02  0.2999636E+01  0.1946548E+03 -0.1570592E+01  0.5842061E+05  0.3115359E+01  0.4211929E+03 -0.1570854E+01  0.8261923E+05 -0.2623287E-01  0.2752832E+03 -0.1571023E+01
  0.4188800E+00  0.1087272E-01 -0.1234586E-01  0.1910657E+03 -0.1570825E+01  0.5905930E+05  0.3117113E+01  0.4135728E+03 -0.1571015E+01  0.8352241E+05 -0.2447904E-01  0.2702070E+03 -0.1570846E+01
Zone t="Diffraction force - beta = -70.000 deg",I=    60,F=POINT
  0.1570800E+01  0.1562481E+04  0.1677887E+01  0.6156549E+03 -0.1552064E+01  0.1198666E+06  0.2667452E+01  0.1982793E+04 -0.1535843E+01  0.1583831E+06 -0.2074972E+00  0.8689328E+03 -0.1377909E+01
  0.1500845E+01  0.2014978E+04  0.1587500E+01  0.6749255E+03 -0.1533072E+01  0.1254270E+06  0.2669075E+01  0.1987772E+04 -0.1527880E+01  0.1696101E+06 -0.1337482E+00  0.9553203E+03 -0.1381275E+01
  0.1436856E+01  0.3329811E+04  0.1338218E+01  0.7185308E+03 -0.1523308E+01  0.1309771E+06  0.2665002E+01  0.1972224E+04 -0.1523224E+01  0.2060136E+06  0.3886547E-01  0.1018370E+04 -0.1388607E+01
  0.1378100E+01  0.5551057E+04 -0.9671398E-01  0.7399921E+03 -0.1518906E+01  0.1366242E+06  0.2655767E+01  0.1936261E+04 -0.1520946E+01  0.3739780E+06 -0.3875262E+00  0.1049188E+04 -0.1397670E+01
  0.1323960E+01  0.1602545E+04 -0.9612893E+00  0.7462498E+03 -0.1517334E+01  0.1424070E+06  0.2641854E+01  0.1887757E+04 -0.1520201E+01  0.2504218E+06 -0.6441032E+00  0.1058075E+04 -0.1407300E+01
  0.1273913E+01  0.6572042E+03 -0.1094234E+01  0.7492456E+03 -0.1517108E+01  0.1484116E+06  0.2622634E+01  0.1845237E+04 -0.1520199E+01  0.2303475E+06 -0.6071895E+00  0.1062252E+04 -0.1416755E+01
  0.1227513E+01  0.2974512E+03 -0.1087647E+01  0.7470935E+03 -0.1517809E+01  0.1545944E+06  0.2597886E+01  0.1798712E+04 -0.1520804E+01  0.2299105E+06 -0.5971811E+00  0.1059061E+04 -0.1425783E+01
  0.1184373E+01  0.1183615E+03 -0.9204679E+00  0.7351652E+03 -0.1518936E+01  0.1609552E+06  0.2568676E+01  0.1746135E+04 -0.1521751E+01  0.2346790E+06 -0.6063087E+00  0.1041960E+04 -0.1433988E+01
  0.1144163E+01  0.3898600E+02  0.1142214E+00  0.7183734E+03 -0.1520498E+01  0.1674875E+06  0.2531787E+01  0.1689604E+04 -0.1522997E+01  0.2415708E+06 -0.6309041E+00  0.1017924E+04 -0.1441773E+01
  0.1106593E+01  0.7024477E+02  0.1264788E+01  0.7037375E+03 -0.1522214E+01  0.1740829E+06  0.2485422E+01  0.1634984E+04 -0.1524447E+01  0.2494337E+06 -0.6694115E+00  0.9971409E+03 -0.1448983E+01
  0.1071413E+01  0.1079040E+03  0.1468939E+01  0.6870240E+03 -0.1524019E+01  0.1805734E+06  0.2429317E+01  0.1575727E+04 -0.1526037E+01  0.2576212E+06 -0.7203900E+00  0.9732189E+03 -0.1455835E+01
  0.1038400E+01  0.1342613E+03  0.1534895E+01  0.6669691E+03 -0.1525961E+01  0.1866797E+06  0.2363447E+01  0.1518688E+04 -0.1527666E+01  0.2655415E+06 -0.7828959E+00  0.9446147E+03 -0.1462167E+01
  0.1007361E+01  0.1526849E+03  0.1564291E+01  0.6484635E+03 -0.1527699E+01  0.1920298E+06  0.2286680E+01  0.1468018E+04 -0.1529292E+01  0.2725628E+06 -0.8574545E+00  0.9182921E+03 -0.1468029E+01
  0.9781234E+00  0.1645915E+03  0.1579400E+01  0.6264857E+03 -0.1529559E+01  0.1958634E+06  0.2197526E+01  0.1415525E+04 -0.1530903E+01  0.2775462E+06 -0.9451730E+00  0.8871056E+03 -0.1473548E+01
  0.9505354E+00  0.1723643E+03  0.1587568E+01  0.6078219E+03 -0.1531292E+01  0.1973175E+06  0.2095227E+01  0.1366350E+04 -0.1532453E+01  0.2792361E+06 -0.1046584E+01  0.8605040E+03 -0.1478615E+01
  0.9244608E+00  0.1751347E+03  0.1592427E+01  0.5889347E+03 -0.1532982E+01  0.1955204E+06  0.1982307E+01  0.1318224E+04 -0.1533975E+01  0.2763860E+06 -0.1159025E+01  0.8337046E+03 -0.1483170E+01
  0.8997786E+00  0.1759110E+03  0.1595015E+01  0.5683087E+03 -0.1534604E+01  0.1897182E+06  0.1862087E+01  0.1269366E+04 -0.1535477E+01  0.2679286E+06 -0.1279082E+01  0.8044632E+03 -0.1487526E+01
  0.8763802E+00  0.1761938E+03  0.1596523E+01  0.5500312E+03 -0.1536099E+01  0.1796999E+06  0.1739001E+01  0.1223184E+04 -0.1536925E+01  0.2535588E+06 -0.1402244E+01  0.7786266E+03 -0.1491622E+01
  0.8541677E+00  0.1745020E+03  0.1597199E+01  0.5291398E+03 -0.1537567E+01  0.1659518E+06  0.1619692E+01  0.1175918E+04 -0.1538281E+01  0.2339614E+06 -0.1521820E+01  0.7489316E+03 -0.1495378E+01
  0.8330535E+00  0.1733854E+03  0.1597364E+01  0.5126520E+03 -0.1538982E+01  0.1491957E+06  0.1508959E+01  0.1134470E+04 -0.1539571E+01  0.2101532E+06 -0.1632985E+01  0.7257160E+03 -0.1498950E+01
  0.8129578E+00  0.1716601E+03  0.1597128E+01  0.4964778E+03 -0.1540311E+01  0.1318105E+06  0.1413920E+01  0.1094261E+04 -0.1540801E+01  0.1854943E+06 -0.1728587E+01  0.7025035E+03 -0.1502185E+01
  0.7938089E+00  0.1692363E+03  0.1596826E+01  0.4800293E+03 -0.1541532E+01  0.1144194E+06  0.1336806E+01  0.1056062E+04 -0.1542015E+01  0.1608543E+06 -0.1806377E+01  0.6792316E+03 -0.1505327E+01
  0.7755414E+00  0.1662834E+03  0.1596268E+01  0.4635393E+03 -0.1542705E+01  0.9791655E+05  0.1279459E+01  0.1019490E+04 -0.1543150E+01  0.1374880E+06 -0.1864495E+01  0.6558688E+03 -0.1508289E+01
  0.7580957E+00  0.1629628E+03  0.1595449E+01  0.4482617E+03 -0.1543867E+01  0.8311227E+05  0.1242529E+01  0.9850939E+03 -0.1544224E+01  0.1165341E+06 -0.1902251E+01  0.6343326E+03 -0.1510933E+01
  0.7414176E+00  0.1577331E+03  0.1594969E+01  0.4316342E+03 -0.1544924E+01  0.6984327E+05  0.1227464E+01  0.9506719E+03 -0.1545193E+01  0.9775317E+05 -0.1918162E+01  0.6107260E+03 -0.1513411E+01
  0.7254575E+00  0.1536692E+03  0.1594185E+01  0.4180799E+03 -0.1545890E+01  0.5812078E+05  0.1236570E+01  0.9193892E+03 -0.1546255E+01  0.8115785E+05 -0.1909819E+01  0.5915276E+03 -0.1515845E+01
  0.7101701E+00  0.1499165E+03  0.1593495E+01  0.4049575E+03 -0.1546895E+01  0.4801411E+05  0.1272906E+01  0.8882725E+03 -0.1547164E+01  0.6684341E+05 -0.1873966E+01  0.5729205E+03 -0.1517963E+01
  0.6955137E+00  0.1463604E+03  0.1592734E+01  0.3924174E+03 -0.1547675E+01  0.3937360E+05  0.1345746E+01  0.8582319E+03 -0.1547992E+01  0.5459692E+05 -0.1800884E+01  0.5551087E+03 -0.1520135E+01
  0.6814499E+00  0.1426548E+03  0.1592219E+01  0.3798765E+03 -0.1548573E+01  0.3265310E+05  0.1453887E+01  0.8291080E+03 -0.1548789E+01  0.4507138E+05 -0.1691143E+01  0.5374047E+03 -0.1522060E+01
  0.6679438E+00  0.1393181E+03  0.1591467E+01  0.3683858E+03 -0.1549436E+01  0.2749557E+05  0.1610412E+01  0.8023748E+03 -0.1549586E+01  0.3777263E+05 -0.1530644E+01  0.5211537E+03 -0.1523913E+01
  0.6549624E+00  0.1360861E+03  0.1590802E+01  0.3573994E+03 -0.1550148E+01  0.2408053E+05  0.1810755E+01  0.7769034E+03 -0.1550362E+01  0.3297850E+05 -0.1323556E+01  0.5055599E+03 -0.1525697E+01
  0.6424763E+00  0.1324725E+03  0.1590319E+01  0.3456242E+03 -0.1550880E+01  0.2240090E+05  0.2037078E+01  0.7522168E+03 -0.1550994E+01  0.3069733E+05 -0.1089146E+01  0.4889154E+03 -0.1527375E+01
  0.6304572E+00  0.1294101E+03  0.1589720E+01  0.3356207E+03 -0.1551556E+01  0.2224701E+05  0.2258076E+01  0.7302726E+03 -0.1551715E+01  0.3062131E+05 -0.8616642E+00  0.4747585E+03 -0.1528798E+01
  0.6188794E+00  0.1263921E+03  0.1589116E+01  0.3258649E+03 -0.1552202E+01  0.2320601E+05  0.2447324E+01  0.7088886E+03 -0.1552317E+01  0.3213102E+05 -0.6691701E+00  0.4609517E+03 -0.1530324E+01
  0.6077194E+00  0.1235354E+03  0.1588476E+01  0.3168389E+03 -0.1552804E+01  0.2492452E+05  0.2601330E+01  0.6885402E+03 -0.1552881E+01  0.3470310E+05 -0.5145631E+00  0.4481779E+03 -0.1531592E+01
  0.5969545E+00  0.1203329E+03  0.1588023E+01  0.3077366E+03 -0.1553380E+01  0.2685252E+05  0.2711180E+01  0.6686906E+03 -0.1553443E+01  0.3753859E+05 -0.4055604E+00  0.4352899E+03 -0.1533086E+01
  0.5865645E+00  0.1166088E+03  0.1587443E+01  0.2983114E+03 -0.1553939E+01  0.2914618E+05  0.2800609E+01  0.6493292E+03 -0.1553977E+01  0.4087292E+05 -0.3176124E+00  0.4219523E+03 -0.1534084E+01
  0.5765300E+00  0.1134431E+03  0.1587060E+01  0.2901672E+03 -0.1554454E+01  0.3131470E+05  0.2864516E+01  0.6317192E+03 -0.1554540E+01  0.4400589E+05 -0.2552558E+00  0.4104376E+03 -0.1535347E+01
  0.5668330E+00  0.1104895E+03  0.1586468E+01  0.2821565E+03 -0.1554951E+01  0.3340998E+05  0.2913231E+01  0.6142224E+03 -0.1554970E+01  0.4701989E+05 -0.2080009E+00  0.3991019E+03 -0.1536251E+01
  0.5574569E+00  0.1078286E+03  0.1586217E+01  0.2749020E+03 -0.1555341E+01  0.3552025E+05  0.2952572E+01  0.5984002E+03 -0.1555432E+01  0.5004510E+05 -0.1700295E+00  0.3888293E+03 -0.1537353E+01
  0.5483858E+00  0.1049777E+03  0.1585988E+01  0.2670025E+03 -0.1555845E+01  0.3750624E+05  0.2983257E+01  0.5817179E+03 -0.1555894E+01  0.5288539E+05 -0.1405444E+00  0.3776458E+03 -0.1538247E+01
  0.5396053E+00  0.1028585E+03  0.1585174E+01  0.2610112E+03 -0.1556200E+01  0.3938232E+05  0.3007728E+01  0.5672977E+03 -0.1556319E+01  0.5556380E+05 -0.1171423E+00  0.3691824E+03 -0.1539105E+01
  0.5311014E+00  0.1006845E+03  0.1584933E+01  0.2548706E+03 -0.1556686E+01  0.4113280E+05  0.3027428E+01  0.5529793E+03 -0.1556694E+01  0.5805946E+05 -0.9838204E-01  0.3604890E+03 -0.1540113E+01
  0.5228614E+00  0.9864073E+02  0.1584411E+01  0.2490094E+03 -0.1557045E+01  0.4280120E+05  0.3043861E+01  0.5391849E+03 -0.1557090E+01  0.6043562E+05 -0.8278839E-01  0.3521927E+03 -0.1540983E+01
  0.5148733E+00  0.9663006E+02  0.1584136E+01  0.2433341E+03 -0.1557337E+01  0.4435413E+05  0.3057290E+01  0.5261591E+03 -0.1557387E+01  0.6264523E+05 -0.7010598E-01  0.3441647E+03 -0.1541845E+01
  0.5071256E+00  0.9469044E+02  0.1583846E+01  0.2378523E+03 -0.1557737E+01  0.4580308E+05  0.3068377E+01  0.5140220E+03 -0.1557714E+01  0.6470545E+05 -0.5968786E-01  0.3364131E+03 -0.1542536E+01
  0.4996075E+00  0.9261510E+02  0.1583567E+01  0.2320387E+03 -0.1558039E+01  0.4715977E+05  0.3077656E+01  0.5019310E+03 -0.1558035E+01  0.6663324E+05 -0.5100713E-01  0.3281784E+03 -0.1543286E+01
  0.4923092E+00  0.9078323E+02  0.1583308E+01  0.2269212E+03 -0.1558330E+01  0.4842857E+05  0.3085461E+01  0.4911277E+03 -0.1558386E+01  0.6843535E+05 -0.4374529E-01  0.3209482E+03 -0.1543999E+01
  0.4852209E+00  0.8903043E+02  0.1582890E+01  0.2220329E+03 -0.1558695E+01  0.4962282E+05  0.3092112E+01  0.4805224E+03 -0.1558621E+01  0.7013073E+05 -0.3759089E-01  0.3140366E+03 -0.1544639E+01
  0.4783339E+00  0.8734917E+02  0.1582895E+01  0.2173529E+03 -0.1558965E+01  0.5074448E+05  0.3097797E+01  0.4705181E+03 -0.1558996E+01  0.7172257E+05 -0.3235760E-01  0.3074113E+03 -0.1545192E+01
  0.4716397E+00  0.8571248E+02  0.1582322E+01  0.2129428E+03 -0.1559112E+01  0.5179006E+05  0.3102660E+01  0.4610649E+03 -0.1559256E+01  0.7320580E+05 -0.2790735E-01  0.3011729E+03 -0.1545651E+01
  0.4651302E+00  0.8390271E+02  0.1581851E+01  0.2081252E+03 -0.1559436E+01  0.5266210E+05  0.3106492E+01  0.4512483E+03 -0.1559444E+01  0.7444275E+05 -0.2444255E-01  0.2943558E+03 -0.1546445E+01
  0.4587980E+00  0.8232930E+02  0.1582038E+01  0.2041265E+03 -0.1559642E+01  0.5372106E+05  0.3110576E+01  0.4424904E+03 -0.1559657E+01  0.7594405E+05 -0.2072154E-01  0.2887039E+03 -0.1546847E+01
  0.4526359E+00  0.8071705E+02  0.1581666E+01  0.2002785E+03 -0.1559876E+01  0.5462628E+05  0.3113864E+01  0.4340851E+03 -0.1559953E+01  0.7722730E+05 -0.1776201E-01  0.2832587E+03 -0.1547465E+01
  0.4466371E+00  0.7912302E+02  0.1581445E+01  0.1964859E+03 -0.1560183E+01  0.5546120E+05  0.3116714E+01  0.4259243E+03 -0.1560090E+01  0.7841069E+05 -0.1521514E-01  0.2778911E+03 -0.1548078E+01
  0.4407952E+00  0.7769188E+02  0.1581265E+01  0.1929509E+03 -0.1560256E+01  0.5626257E+05  0.3119272E+01  0.4178695E+03 -0.1560336E+01  0.7954630E+05 -0.1293802E-01  0.2728904E+03 -0.1548129E+01
  0.4351042E+00  0.7633643E+02  0.1581080E+01  0.1895718E+03 -0.1560502E+01  0.5701728E+05  0.3121524E+01  0.4102915E+03 -0.1560557E+01  0.8061560E+05 -0.1094819E-01  0.2681127E+03 -0.1548803E+01
  0.4295583E+00  0.7498580E+02  0.1580625E+01  0.1861120E+03 -0.1560851E+01  0.5773251E+05  0.3123513E+01  0.4027629E+03 -0.1560777E+01  0.8162892E+05 -0.9201922E-02  0.2632208E+03 -0.1549293E+01
  0.4241519E+00  0.7372688E+02  0.1580602E+01  0.1829022E+03 -0.1560919E+01  0.5841712E+05  0.3125293E+01  0.3957671E+03 -0.1560987E+01  0.8259863E+05 -0.7651638E-02  0.2586805E+03 -0.1549454E+01
  0.4188800E+00  0.7241744E+02  0.1580282E+01  0.1795303E+03 -0.1561133E+01  0.5905586E+05  0.3126862E+01  0.3886116E+03 -0.1561077E+01  0.8350338E+05 -0.6297009E-02  0.2539090E+03 -0.1550173E+01
Zone t="Diffraction force - beta = -50.000 deg",I=    60,F=POINT
  0.1570800E+01  0.2914238E+04  0.1784914E+01  0.4857047E+03 -0.1446298E+01  0.1177452E+06  0.2773269E+01  0.1574728E+04 -0.1429334E+01  0.1560204E+06  0.1542210E+00  0.7019031E+03 -0.1116499E+01
  0.1500845E+01  0.3762747E+04  0.1685144E+01  0.5361730E+03 -0.1435991E+01  0.1235664E+06  0.2765765E+01  0.1585891E+04 -0.1430524E+01  0.1768738E+06  0.2618254E+00  0.7743795E+03 -0.1149483E+01
  0.1436856E+01  0.6224954E+04  0.1427607E+01  0.5737258E+03 -0.1434128E+01  0.1293369E+06  0.2753706E+01  0.1579170E+04 -0.1433838E+01  0.2559297E+06  0.4482000E+00  0.8270764E+03 -0.1180344E+01
  0.1378100E+01  0.1038831E+05 -0.1457632E-01  0.5930420E+03 -0.1436660E+01  0.1351766E+06  0.2737410E+01  0.1554836E+04 -0.1438686E+01  0.5305042E+06 -0.2739049E+00  0.8530629E+03 -0.1208587E+01
  0.1323960E+01  0.3002008E+04 -0.8855904E+00  0.5997599E+03 -0.1441516E+01  0.1411234E+06  0.2717244E+01  0.1519414E+04 -0.1444257E+01  0.2943567E+06 -0.6553627E+00  0.8609670E+03 -0.1234451E+01
  0.1273913E+01  0.1232384E+04 -0.1024412E+01  0.6035296E+03 -0.1446821E+01  0.1472670E+06  0.2692463E+01  0.1487977E+04 -0.1449832E+01  0.2478648E+06 -0.6030338E+00  0.8646809E+03 -0.1258142E+01
  0.1227513E+01  0.5585305E+03 -0.1023345E+01  0.6028627E+03 -0.1452541E+01  0.1535683E+06  0.2662748E+01  0.1452715E+04 -0.1455444E+01  0.2388217E+06 -0.5753587E+00  0.8623460E+03 -0.1279477E+01
  0.1184373E+01  0.2226980E+03 -0.8626149E+00  0.5941034E+03 -0.1458163E+01  0.1600288E+06  0.2629086E+01  0.1412032E+04 -0.1460912E+01  0.2397453E+06 -0.5737670E+00  0.8487041E+03 -0.1298497E+01
  0.1144163E+01  0.7308633E+02  0.1590738E+00  0.5812189E+03 -0.1463790E+01  0.1666486E+06  0.2588185E+01  0.1367755E+04 -0.1466225E+01  0.2445903E+06 -0.5924591E+00  0.8292974E+03 -0.1315749E+01
  0.1106593E+01  0.1310448E+03  0.1316813E+01  0.5699546E+03 -0.1469082E+01  0.1733236E+06  0.2538188E+01  0.1324707E+04 -0.1471396E+01  0.2512337E+06 -0.6280407E+00  0.8123615E+03 -0.1331660E+01
  0.1071413E+01  0.2018470E+03  0.1518519E+01  0.5569072E+03 -0.1474319E+01  0.1798852E+06  0.2478788E+01  0.1277754E+04 -0.1476243E+01  0.2586326E+06 -0.6779517E+00  0.7931039E+03 -0.1346052E+01
  0.1038400E+01  0.2514502E+03  0.1581582E+01  0.5410098E+03 -0.1479107E+01  0.1860560E+06  0.2409921E+01  0.1232241E+04 -0.1480887E+01  0.2660085E+06 -0.7405564E+00  0.7698286E+03 -0.1359491E+01
  0.1007361E+01  0.2861531E+03  0.1608002E+01  0.5263284E+03 -0.1483736E+01  0.1914653E+06  0.2330419E+01  0.1191726E+04 -0.1485262E+01  0.2726328E+06 -0.8159311E+00  0.7485038E+03 -0.1371602E+01
  0.9781234E+00  0.3086446E+03  0.1620739E+01  0.5087381E+03 -0.1488087E+01  0.1953554E+06  0.2238766E+01  0.1149677E+04 -0.1489367E+01  0.2773107E+06 -0.9048977E+00  0.7229411E+03 -0.1382878E+01
  0.9505354E+00  0.3232533E+03  0.1626874E+01  0.4937791E+03 -0.1492153E+01  0.1968639E+06  0.2134174E+01  0.1110257E+04 -0.1493279E+01  0.2787557E+06 -0.1007824E+01  0.7013574E+03 -0.1393108E+01
  0.9244608E+00  0.3285403E+03  0.1629410E+01  0.4786437E+03 -0.1495870E+01  0.1951197E+06  0.2019148E+01  0.1071492E+04 -0.1496923E+01  0.2757104E+06 -0.1121952E+01  0.6795578E+03 -0.1402331E+01
  0.8997786E+00  0.3301093E+03  0.1630161E+01  0.4620102E+03 -0.1499469E+01  0.1893727E+06  0.1896983E+01  0.1032048E+04 -0.1500353E+01  0.2671096E+06 -0.1243810E+01  0.6556928E+03 -0.1411120E+01
  0.8763802E+00  0.3306271E+03  0.1629774E+01  0.4473329E+03 -0.1502852E+01  0.1794090E+06  0.1772099E+01  0.9947972E+03 -0.1503623E+01  0.2526401E+06 -0.1368839E+01  0.6347148E+03 -0.1419222E+01
  0.8541677E+00  0.3275522E+03  0.1628741E+01  0.4303560E+03 -0.1505920E+01  0.1657129E+06  0.1651125E+01  0.9565135E+03 -0.1506628E+01  0.2329806E+06 -0.1490316E+01  0.6104569E+03 -0.1426641E+01
  0.8330535E+00  0.3254985E+03  0.1627380E+01  0.4171286E+03 -0.1508930E+01  0.1490043E+06  0.1538847E+01  0.9230900E+03 -0.1509483E+01  0.2091420E+06 -0.1603411E+01  0.5915551E+03 -0.1433657E+01
  0.8129578E+00  0.3222915E+03  0.1625796E+01  0.4039382E+03 -0.1511652E+01  0.1316600E+06  0.1442371E+01  0.8905225E+03 -0.1512162E+01  0.1844777E+06 -0.1700952E+01  0.5726422E+03 -0.1440158E+01
  0.7938089E+00  0.3178037E+03  0.1624090E+01  0.3907051E+03 -0.1514182E+01  0.1143027E+06  0.1363919E+01  0.8595386E+03 -0.1514680E+01  0.1598461E+06 -0.1780685E+01  0.5537792E+03 -0.1446159E+01
  0.7755414E+00  0.3121832E+03  0.1622253E+01  0.3773275E+03 -0.1516596E+01  0.9782744E+05  0.1305321E+01  0.8299545E+03 -0.1517022E+01  0.1364948E+06 -0.1840747E+01  0.5346822E+03 -0.1451805E+01
  0.7580957E+00  0.3060555E+03  0.1620522E+01  0.3649395E+03 -0.1518928E+01  0.8304452E+05  0.1267223E+01  0.8019997E+03 -0.1519205E+01  0.1155562E+06 -0.1880417E+01  0.5171132E+03 -0.1456867E+01
  0.7414176E+00  0.2962292E+03  0.1618820E+01  0.3514357E+03 -0.1521054E+01  0.6979181E+05  0.1251063E+01  0.7741177E+03 -0.1521385E+01  0.9678484E+05 -0.1898187E+01  0.4978455E+03 -0.1461863E+01
  0.7254575E+00  0.2886290E+03  0.1617126E+01  0.3404635E+03 -0.1523033E+01  0.5808199E+05  0.1259137E+01  0.7486412E+03 -0.1523327E+01  0.8019269E+05 -0.1891584E+01  0.4822480E+03 -0.1466441E+01
  0.7101701E+00  0.2816014E+03  0.1615406E+01  0.3297827E+03 -0.1525003E+01  0.4798503E+05  0.1294494E+01  0.7233855E+03 -0.1525175E+01  0.6587306E+05 -0.1857179E+01  0.4670443E+03 -0.1470679E+01
  0.6955137E+00  0.2749160E+03  0.1613821E+01  0.3195920E+03 -0.1526659E+01  0.3935125E+05  0.1366407E+01  0.6989697E+03 -0.1526914E+01  0.5361203E+05 -0.1784839E+01  0.4525686E+03 -0.1474743E+01
  0.6814499E+00  0.2679764E+03  0.1612432E+01  0.3093964E+03 -0.1528423E+01  0.3263506E+05  0.1473673E+01  0.6753116E+03 -0.1528649E+01  0.4407310E+05 -0.1674549E+01  0.4380995E+03 -0.1478659E+01
  0.6679438E+00  0.2616902E+03  0.1610969E+01  0.3000630E+03 -0.1529973E+01  0.2747986E+05  0.1629377E+01  0.6535804E+03 -0.1530091E+01  0.3677261E+05 -0.1511204E+01  0.4248448E+03 -0.1482010E+01