VARIABLES="w (rad/s)"
"A   1   1" "B   1   1"
"A   1   2" "B   1   2"
"A   1   3" "B   1   3"
"A   1   4" "B   1   4"
"A   1   5" "B   1   5"
"A   1   6" "B   1   6"
Zone t="Motion of body    1 in DoF   1",I=    60,F=POINT
  0.1570800E+01  0.1522704E+05  0.8236312E+01  0.5943199E-03  0.2513528E-03  0.1881606E-01 -0.3455091E-01 -0.2307081E-03 -0.8016825E-03 -0.3394435E+05  0.3490032E+03 -0.7813718E-03 -0.2824664E-03
  0.1500845E+01  0.1511176E+05  0.2308909E+02  0.2268467E-03 -0.9293556E-03  0.2026243E-01 -0.2129745E-01 -0.3812550E-04 -0.1717091E-02 -0.3665778E+05  0.1779955E+04  0.2604369E-02 -0.1922369E-02
  0.1436856E+01  0.1483925E+05  0.2042719E+03 -0.5978816E-02  0.6580353E-03  0.3417376E-01 -0.3683472E-01 -0.1056647E-01  0.2958298E-02 -0.4386949E+05  0.9566031E+04 -0.4284995E-02  0.1745224E-02
  0.1378100E+01  0.1549696E+05  0.1555509E+04 -0.5563850E-03  0.3875732E-02  0.3456784E-01 -0.3674316E-01 -0.2226924E-02 -0.6561279E-03 -0.1777873E+05  0.4852705E+05  0.2556326E-02 -0.2533722E-01
  0.1323960E+01  0.1571341E+05  0.3074144E+03  0.2184009E-02  0.7629395E-04  0.3256421E-01 -0.4461670E-01  0.4347849E-02  0.2056122E-02 -0.1501465E+05  0.7214909E+04  0.3264488E-02 -0.3977776E-02
  0.1273913E+01  0.1556412E+05  0.1229296E+03  0.1497236E-03  0.4453659E-03  0.3633792E-01 -0.5425644E-01  0.4446791E-03  0.1384735E-02 -0.2012247E+05  0.2282045E+04 -0.1154369E-02 -0.2841949E-03
  0.1227513E+01  0.1548543E+05  0.6955431E+02  0.1025529E-02  0.3085136E-03  0.4712305E-01 -0.6705189E-01  0.2322978E-03  0.5350113E-03 -0.2238489E+05  0.1054449E+04  0.3216432E-03  0.1810789E-03
  0.1184373E+01  0.1543676E+05  0.4479004E+02  0.5411041E-03  0.7534027E-04  0.3239458E-01 -0.3518486E-01  0.2143078E-02  0.1037121E-03 -0.2364442E+05  0.5858706E+03  0.2302913E-03  0.8007288E-03
  0.1144163E+01  0.1540918E+05  0.3086134E+02  0.3434072E-03  0.2098083E-04  0.5999749E-01 -0.8044267E-01  0.3596607E-03  0.1761913E-03 -0.2440465E+05  0.3623463E+03  0.7018176E-03 -0.4902482E-03
  0.1106593E+01  0.1538811E+05  0.2271358E+02  0.4412474E-03  0.1692772E-04  0.6202789E-01 -0.8055162E-01  0.4996351E-03 -0.4473925E-03 -0.2489521E+05  0.2377448E+03  0.1792567E-03 -0.3715158E-03
  0.1071413E+01  0.1537148E+05  0.1736294E+02  0.5500873E-03  0.3858805E-03  0.5758866E-01 -0.9405482E-01 -0.6369564E-03  0.6422997E-03 -0.2525416E+05  0.1631687E+03 -0.7957574E-03  0.6748140E-03
  0.1038400E+01  0.1535928E+05  0.1357338E+02  0.1699054E-02  0.8773804E-04  0.7070038E-01 -0.1440748E+00  0.2738806E-02 -0.1740456E-03 -0.2552418E+05  0.1159912E+03  0.1249952E-02 -0.3901124E-04
  0.1007361E+01  0.1534451E+05  0.1084476E+02 -0.2707578E-03  0.3032684E-03  0.6820162E-01 -0.1536393E+00  0.6503867E-03  0.4361868E-03 -0.2573004E+05  0.8461300E+02  0.1204209E-02  0.3975332E-03
  0.9781234E+00  0.1533481E+05  0.8733385E+01  0.7527031E-03 -0.2092719E-03  0.5339073E-01 -0.1501276E+00  0.1400350E-02 -0.1459718E-03 -0.2589933E+05  0.6307678E+02  0.5333272E-03 -0.9343028E-05
  0.9505354E+00  0.1532225E+05  0.7101671E+01  0.1705614E-03  0.6973743E-04  0.4551381E-01 -0.2141522E+00  0.1346933E-03  0.1933873E-03 -0.2603766E+05  0.4805578E+02  0.7885956E-03 -0.3646314E-04
  0.9244608E+00  0.1531510E+05  0.5746235E+01  0.3610602E-03  0.2574623E-03  0.1823818E-01 -0.2380133E+00  0.7159308E-03  0.3834963E-03 -0.2615408E+05  0.3746426E+02 -0.2929746E-03  0.8285046E-05
  0.8997786E+00  0.1531239E+05  0.4718118E+01  0.7631272E-04  0.4333258E-04 -0.1699919E-01 -0.2562965E+00  0.1017238E-02  0.7990003E-04 -0.2624694E+05  0.2953855E+02  0.3752042E-03 -0.3269166E-03
  0.8763802E+00  0.1530641E+05  0.3929193E+01  0.4222204E-03  0.1143366E-03 -0.2826537E-01 -0.1192014E+00  0.2543116E-02  0.4902482E-04 -0.2632374E+05  0.2330389E+02 -0.6888287E-03  0.4389957E-03
  0.8541677E+00  0.1530613E+05  0.3275838E+01 -0.8172746E-03  0.4044175E-04 -0.5585045E-01 -0.1311984E+00 -0.4700446E-03  0.2830178E-03 -0.2639728E+05  0.1871726E+02 -0.9300406E-03 -0.1817867E-03
  0.8330535E+00  0.1529864E+05  0.2767558E+01  0.8013555E-03  0.1250058E-03 -0.1135881E+00 -0.1780755E+00  0.1638772E-02 -0.2099574E-04 -0.2645790E+05  0.1519008E+02 -0.3434380E-03  0.1837611E-03
  0.8129578E+00  0.1529089E+05  0.2349221E+01  0.4035436E-03  0.2966821E-04 -0.1279978E+00 -0.1574144E+00  0.9895031E-03  0.5343556E-04 -0.2651022E+05  0.1235762E+02  0.9079732E-03 -0.1593120E-03
  0.7938089E+00  0.1528455E+05  0.2000735E+01  0.5574451E-03 -0.6012619E-05 -0.1681964E+00 -0.1542419E+00  0.1337748E-02 -0.3129169E-03 -0.2655472E+05  0.1014356E+02  0.1345557E-03 -0.1343898E-03
  0.7755414E+00  0.1527971E+05  0.1708231E+01  0.1483004E-02 -0.2132356E-04 -0.1332410E+00 -0.9749332E-01  0.2926044E-02  0.1652613E-03 -0.2659381E+05  0.8312070E+01  0.1073518E-02  0.1593493E-03
  0.7580957E+00  0.1527447E+05  0.1463691E+01  0.2161221E-02 -0.6356835E-04 -0.1977637E+00 -0.1212616E+00  0.4843878E-02 -0.1288727E-03 -0.2662418E+05  0.6949890E+01 -0.6415732E-03 -0.4513003E-04
  0.7414176E+00  0.1527843E+05  0.1241437E+01  0.1266991E-02 -0.1019165E-03 -0.1826332E+00 -0.9690459E-01  0.2794454E-02 -0.1789033E-03 -0.2665662E+05  0.5818917E+01  0.2214983E-02 -0.8060411E-04
  0.7254575E+00  0.1527662E+05  0.1066673E+01 -0.1990279E-02  0.9396300E-04 -0.1501379E+00 -0.6874005E-01 -0.1530832E-02  0.2949238E-03 -0.2668465E+05  0.4876861E+01 -0.1112137E-02  0.1029540E-03
  0.7101701E+00  0.1527389E+05  0.9210794E+00 -0.1628915E-02  0.8661300E-05 -0.1110281E+00 -0.4380503E-01 -0.2137196E-02 -0.7400662E-04 -0.2671538E+05  0.4099175E+01 -0.8352723E-03 -0.1316033E-03
  0.6955137E+00  0.1527069E+05  0.7986122E+00  0.2879478E-03  0.3700703E-04 -0.1139581E+00 -0.3930676E-01  0.1947761E-02  0.2158247E-03 -0.2674662E+05  0.3478651E+01  0.1515154E-02  0.3139116E-04
  0.6814499E+00  0.1526903E+05  0.6943710E+00  0.7137339E-03  0.3589317E-04 -0.1390340E+00 -0.4168525E-01  0.9677392E-03  0.2064444E-03 -0.2677308E+05  0.2976788E+01  0.6871438E-03  0.5389936E-04
  0.6679438E+00  0.1526534E+05  0.6068534E+00  0.3897829E-03  0.2135523E-04 -0.1215880E+00 -0.3214652E-01  0.1947487E-02  0.5134195E-04 -0.2679689E+05  0.2540807E+01  0.7067493E-03  0.2356246E-06
  0.6549624E+00  0.1526133E+05  0.5320377E+00 -0.5955347E-03 -0.6868131E-04 -0.7505630E-01 -0.1801539E-01 -0.6290244E-03 -0.1688041E-03 -0.2681799E+05  0.2166960E+01  0.2140430E-03 -0.1407228E-03
  0.6424763E+00  0.1526108E+05  0.4659516E+00  0.8965611E-03  0.1338981E-03 -0.7348164E-01 -0.1608421E-01  0.1130350E-02  0.3492106E-03 -0.2683850E+05  0.1868178E+01 -0.2849996E-03  0.2417741E-03
  0.6304572E+00  0.1525717E+05  0.4104734E+00  0.4613646E-03 -0.3096648E-04 -0.4885927E-01 -0.9878702E-02  0.1337201E-02  0.4235283E-04 -0.2685275E+05  0.1607785E+01  0.5899417E-04  0.1802482E-04
  0.6188794E+00  0.1525362E+05  0.3612982E+00 -0.7042231E-03 -0.5925633E-04 -0.2108740E-01 -0.3789550E-02 -0.2704402E-03 -0.1444295E-03 -0.2686553E+05  0.1386508E+01 -0.2758335E-03 -0.1114416E-03
  0.6077194E+00  0.1524959E+05  0.3192545E+00  0.2291130E-03 -0.3969483E-04 -0.4915887E-01 -0.8049911E-02  0.6834160E-03 -0.9772554E-04 -0.2687901E+05  0.1209846E+01  0.4441027E-03 -0.1285784E-04
  0.5969545E+00  0.1524877E+05  0.2816947E+00  0.4489160E-03  0.7860176E-04 -0.4327327E-01 -0.6526481E-02  0.5479651E-03  0.1604557E-03 -0.2688616E+05  0.1055535E+01  0.2270940E-02 -0.5529542E-04
  0.5865645E+00  0.1525321E+05  0.2477641E+00 -0.2113624E-03  0.9322539E-06 -0.3329608E-01 -0.4467895E-02 -0.5609232E-03  0.3478955E-04 -0.2690022E+05  0.9236664E+00 -0.1002345E-02 -0.2674712E-04
  0.5765300E+00  0.1525437E+05  0.2194819E+00 -0.3407575E-03  0.3480352E-05  0.1352278E-01  0.1571309E-02  0.1902287E-04  0.1114700E-04 -0.2690910E+05  0.8053626E+00  0.2175224E-03  0.3734883E-04
  0.5668330E+00  0.1525510E+05  0.1953014E+00  0.2574165E-03 -0.3743824E-04 -0.1874093E-01 -0.2156141E-02 -0.5308163E-03 -0.1576170E-03 -0.2692085E+05  0.7168117E+00  0.1778361E-02 -0.7656729E-04
  0.5574569E+00  0.1525457E+05  0.1745612E+00  0.1898942E-03 -0.2199132E-04 -0.7931933E-02 -0.9013033E-03  0.5217814E-04 -0.2222043E-04 -0.2693383E+05  0.6340031E+00 -0.5842241E-03 -0.3378349E-04
  0.5483858E+00  0.1525730E+05  0.1559414E+00 -0.3252037E-03  0.1601502E-04 -0.2173300E-01 -0.2153764E-02 -0.1686016E-02 -0.5921349E-05 -0.2695128E+05  0.5663352E+00 -0.9408299E-03  0.7274584E-04
  0.5396053E+00  0.1525356E+05  0.1405526E+00  0.3676099E-03 -0.1673494E-04 -0.1612712E-02 -0.3176779E-03  0.1678987E-03  0.1545995E-06 -0.2696217E+05  0.5024166E+00  0.4497919E-03  0.1947209E-04
  0.5311014E+00  0.1525141E+05  0.1265163E+00  0.6554137E-03  0.2065208E-05  0.6379060E-02  0.5362406E-03  0.1141138E-02 -0.1149252E-05 -0.2697348E+05  0.4481000E+00  0.1436523E-02 -0.5588029E-04
  0.5228614E+00  0.1524875E+05  0.1142433E+00  0.6128480E-03 -0.1206994E-05 -0.5883159E-02 -0.4631355E-03  0.2015923E-02  0.7226598E-05 -0.2698604E+05  0.4022734E+00 -0.6438552E-03 -0.1019747E-03
  0.5148733E+00  0.1524677E+05  0.1033861E+00  0.7779451E-04  0.1449557E-04 -0.1215724E-01 -0.8783024E-03  0.4686193E-03  0.4298426E-04 -0.2699627E+05  0.3617113E+00  0.5649363E-04 -0.3225752E-04
  0.5071256E+00  0.1524479E+05  0.9380332E-01 -0.6224615E-03 -0.7160474E-05 -0.2352566E-02 -0.2181763E-03 -0.1372800E-03 -0.5898997E-05 -0.2700345E+05  0.3246634E+00 -0.5989547E-03  0.1572131E-04
  0.4996075E+00  0.1524545E+05  0.8509295E-01 -0.4963002E-04  0.2132356E-04  0.1513429E-01  0.1018078E-02 -0.3054155E-03  0.1353957E-04 -0.2701166E+05  0.2912400E+00 -0.4390348E-04  0.6767071E-04
  0.4923092E+00  0.1524412E+05  0.7755204E-01  0.5036577E-03 -0.1631165E-04  0.7713711E-02  0.5516075E-03  0.1418474E-02 -0.5081296E-04 -0.2701581E+05  0.2641419E+00 -0.2324574E-04  0.3948191E-04
  0.4852209E+00  0.1524270E+05  0.7085353E-01 -0.2063716E-03 -0.3721099E-05 -0.6993048E-02 -0.3143740E-03  0.1105562E-03  0.2640462E-04 -0.2701954E+05  0.2406658E+00 -0.9227757E-03 -0.4934880E-04
  0.4783339E+00  0.1524125E+05  0.6491682E-01 -0.1794368E-03  0.2436317E-04  0.3466120E-02  0.1851972E-03 -0.1155872E-02  0.4174863E-04 -0.2702232E+05  0.2181372E+00 -0.1365713E-02  0.1126541E-03
  0.4716397E+00  0.1524011E+05  0.5961419E-01  0.4873117E-03  0.3692461E-05 -0.4322111E-02 -0.2887482E-03  0.1560004E-02 -0.5950918E-05 -0.2702417E+05  0.1994551E+00  0.2243453E-02 -0.1894194E-05
  0.4651302E+00  0.1524192E+05  0.5484118E-01 -0.4100677E-05  0.3739493E-05 -0.2831928E-01 -0.1446606E-02 -0.4808044E-03 -0.1209206E-04 -0.2702267E+05  0.1839603E+00 -0.9226523E-04  0.3969879E-04
  0.4587980E+00  0.1524158E+05  0.5048188E-01 -0.1122464E-03 -0.1947628E-05 -0.1047217E-01 -0.5252406E-03 -0.6542509E-03  0.1340546E-04 -0.2702961E+05  0.1671619E+00 -0.8023538E-03  0.4159287E-05
  0.4526359E+00  0.1524223E+05  0.4645921E-01  0.2401906E-03 -0.1702504E-04 -0.3307466E-01 -0.1573662E-02 -0.2117469E-03 -0.1492235E-04 -0.2703073E+05  0.1550841E+00  0.3676601E-03 -0.3294455E-04
  0.4466371E+00  0.1524356E+05  0.4290277E-01  0.3181497E-03 -0.1321151E-04 -0.1034093E-01 -0.4576487E-03 -0.3277583E-03 -0.2047908E-04 -0.2703171E+05  0.1410548E+00  0.9181502E-04 -0.1509389E-04
  0.4407952E+00  0.1524357E+05  0.3973305E-01 -0.4543416E-04 -0.3759284E-05 -0.2856943E-02 -0.1201401E-03 -0.8140287E-03  0.1125108E-04 -0.2703605E+05  0.1293015E+00  0.2819082E-02  0.5243451E-04
  0.4351042E+00  0.1524335E+05  0.3676807E-01 -0.4887781E-03 -0.1243874E-04  0.1510171E-01  0.6457944E-03 -0.1474006E-02 -0.4346087E-04 -0.2704021E+05  0.1183854E+00  0.2958970E-04 -0.7786602E-04
  0.4295583E+00  0.1524380E+05  0.3414677E-01 -0.6127552E-03 -0.8275732E-05 -0.1394795E-01 -0.6009315E-03  0.2147974E-03 -0.7281080E-05 -0.2704566E+05  0.1113107E+00 -0.4129437E-03  0.1356233E-04
  0.4241519E+00  0.1524366E+05  0.3171527E-01 -0.4272010E-04  0.1029135E-04 -0.3325985E-01 -0.1267084E-02  0.1984236E-03 -0.1644366E-04 -0.2705023E+05  0.1042972E+00 -0.4080894E-03 -0.3363076E-04
  0.4188800E+00  0.1524498E+05  0.2954096E-01 -0.2732069E-04  0.1729350E-05  0.4742417E-02  0.1617724E-03 -0.9448406E-04  0.9671086E-05 -0.2705619E+05  0.9498953E-01  0.5293384E-03 -0.6538234E-05
Zone t="Motion of body    1 in DoF   2",I=    60,F=POINT
  0.1570800E+01  0.4299670E-02 -0.1609221E-02  0.1557648E+05  0.6443481E+02 -0.1424562E-01  0.3216648E-01  0.2942159E+05  0.1748833E+03  0.8661995E-01 -0.7902187E-01  0.2202846E+05  0.9112396E+02
  0.1500845E+01  0.7668308E-02 -0.2584994E-02  0.1555744E+05  0.5139381E+02 -0.2204416E-01  0.4164720E-01  0.2940310E+05  0.1406619E+03  0.1491063E+00 -0.1267137E+00  0.2200154E+05  0.7268156E+02
  0.1436856E+01  0.1076691E-01 -0.5997933E-02  0.1553840E+05  0.4129854E+02 -0.3087373E-01  0.5382840E-01  0.2938773E+05  0.1132559E+03  0.2917301E+00 -0.3115528E+00  0.2197461E+05  0.5840531E+02
  0.1378100E+01 -0.4798474E-02 -0.2536119E-01  0.1552519E+05  0.3340163E+02 -0.3399485E-01  0.5928516E-01  0.2937873E+05  0.9169852E+02 -0.2123121E+00 -0.9108173E+00  0.2195594E+05  0.4723780E+02
  0.1323960E+01 -0.6531858E-02 -0.2597053E-02  0.1551584E+05  0.2714905E+02 -0.3903556E-01  0.6445159E-01  0.2937364E+05  0.7457498E+02 -0.1513824E+00 -0.1749869E+00  0.2194271E+05  0.3839384E+02
  0.1273913E+01 -0.5857188E-02 -0.5858280E-03  0.1550249E+05  0.2220069E+02 -0.4058708E-01  0.6588710E-01  0.2936040E+05  0.6097565E+02 -0.1105439E+00 -0.1278537E+00  0.2192384E+05  0.3139677E+02
  0.1227513E+01 -0.4737633E-02 -0.5027391E-03  0.1548923E+05  0.1824985E+02 -0.5272461E-01  0.8384660E-01  0.2934753E+05  0.5004737E+02 -0.3483069E-01 -0.1309296E+00  0.2190507E+05  0.2580998E+02
  0.1184373E+01 -0.4594554E-02 -0.5733520E-03  0.1548067E+05  0.1491298E+02 -0.7567728E-01  0.1130027E+00  0.2933746E+05  0.4104881E+02  0.9733432E-02 -0.1663407E+00  0.2189298E+05  0.2108968E+02
  0.1144163E+01 -0.3474080E-02 -0.8513816E-03  0.1547458E+05  0.1221322E+02 -0.6554410E-01  0.1009533E+00  0.2933004E+05  0.3376057E+02  0.5107765E-02 -0.1481799E+00  0.2188437E+05  0.1727235E+02
  0.1106593E+01 -0.2870693E-02 -0.1063604E-02  0.1546544E+05  0.1010698E+02 -0.8038630E-01  0.1339717E+00  0.2932125E+05  0.2792668E+02  0.3477581E-01 -0.1913891E+00  0.2187144E+05  0.1429388E+02
  0.1071413E+01  0.7681640E-03  0.5565602E-03  0.1545789E+05  0.8398195E+01 -0.6731716E-01  0.1347328E+00  0.2931808E+05  0.2315141E+02  0.4939749E-01 -0.1917565E+00  0.2186077E+05  0.1187722E+02
  0.1038400E+01  0.9514701E-03  0.1559220E-04  0.1545279E+05  0.6986865E+01 -0.5370112E-01  0.1266167E+00  0.2931391E+05  0.1927510E+02  0.3468641E-01 -0.1798697E+00  0.2185354E+05  0.9880546E+01
  0.1007361E+01  0.1092498E-02  0.4556458E-03  0.1544534E+05  0.5849330E+01 -0.5638200E-01  0.1539638E+00  0.2930455E+05  0.1614086E+02  0.4480568E-01 -0.2206576E+00  0.2184302E+05  0.8272448E+01
  0.9781234E+00  0.3753765E-03 -0.2527302E-03  0.1544208E+05  0.4892932E+01 -0.4607089E-01  0.1662006E+00  0.2929882E+05  0.1354333E+02  0.3256514E-01 -0.2351121E+00  0.2183840E+05  0.6920056E+01
  0.9505354E+00  0.1842063E-02  0.3451640E-03  0.1543553E+05  0.4120203E+01 -0.3035190E-01  0.1789637E+00  0.2929131E+05  0.1140319E+02  0.1535454E-01 -0.2547361E+00  0.2182913E+05  0.5827293E+01
  0.9244608E+00  0.8634496E-03  0.7782411E-04  0.1542980E+05  0.3476140E+01 -0.1274233E-01  0.1852695E+00  0.2928475E+05  0.9624547E+01 -0.1465698E-01 -0.2638769E+00  0.2182104E+05  0.4916142E+01
  0.8997786E+00 -0.1084277E-02  0.8996134E-03  0.1542743E+05  0.2936055E+01  0.1273574E-01  0.2050879E+00  0.2928197E+05  0.8144570E+01 -0.3084730E-01 -0.2924587E+00  0.2181767E+05  0.4152359E+01
  0.8763802E+00 -0.3361440E-02 -0.2539302E-03  0.1542280E+05  0.2496766E+01  0.4216981E-01  0.2141916E+00  0.2927853E+05  0.6920209E+01 -0.7829795E-01 -0.3047596E+00  0.2181112E+05  0.3530744E+01
  0.8541677E+00 -0.2374786E-02  0.1297905E-03  0.1542328E+05  0.2118620E+01  0.6053191E-01  0.1737526E+00  0.2927960E+05  0.5888174E+01 -0.1013063E+00 -0.2469187E+00  0.2181180E+05  0.2996274E+01
  0.8330535E+00 -0.2976463E-02 -0.3620805E-03  0.1541793E+05  0.1815547E+01  0.2729188E-01  0.5910832E-01  0.2927512E+05  0.5037184E+01 -0.3406905E-01 -0.8376193E-01  0.2180425E+05  0.2567656E+01
  0.8129578E+00 -0.2445897E-02  0.4019896E-03  0.1541320E+05  0.1558862E+01  0.4713014E-01  0.6768630E-01  0.2927170E+05  0.4318042E+01 -0.6845226E-01 -0.9698560E-01  0.2179756E+05  0.2204360E+01
  0.7938089E+00 -0.6487507E-03  0.2204929E-04  0.1540993E+05  0.1340536E+01 -0.3354282E-02 -0.1054290E-02  0.2926804E+05  0.3713757E+01  0.1690597E-01  0.1593126E-02  0.2179292E+05  0.1895884E+01
  0.7755414E+00  0.1449803E-02  0.3391851E-03  0.1540800E+05  0.1154694E+01 -0.1566623E+00 -0.1205380E+00  0.2926452E+05  0.3203117E+01  0.2656619E+00  0.1705739E+00  0.2179020E+05  0.1633032E+01
  0.7580957E+00  0.1206409E-02  0.2628590E-03  0.1540518E+05  0.9980553E+00 -0.2063400E+00 -0.1317245E+00  0.2926038E+05  0.2770239E+01  0.3305587E+00  0.1864661E+00  0.2178622E+05  0.1411590E+01
  0.7414176E+00  0.1659308E-02  0.1092234E-03  0.1540645E+05  0.8612589E+00 -0.2776884E+00 -0.1483915E+00  0.2925901E+05  0.2399717E+01  0.4447871E+00  0.2102420E+00  0.2178801E+05  0.1218139E+01
  0.7254575E+00  0.3369277E-02  0.2971019E-03  0.1540308E+05  0.7488230E+00 -0.2957602E+00 -0.1354938E+00  0.2925500E+05  0.2085800E+01  0.4729766E+00  0.1915825E+00  0.2178325E+05  0.1059065E+01
  0.7101701E+00  0.3612351E-02  0.1928594E-03  0.1540037E+05  0.6517413E+00 -0.2554725E+00 -0.1033830E+00  0.2925388E+05  0.1813468E+01  0.4128018E+00  0.1464682E+00  0.2177940E+05  0.9217228E+00
  0.6955137E+00  0.2666945E-02 -0.4556880E-04  0.1539774E+05  0.5684994E+00 -0.9771576E-01 -0.3482550E-01  0.2925386E+05  0.1579777E+01  0.1486688E+00  0.4977736E-01  0.2177570E+05  0.8038248E+00
  0.6814499E+00  0.2418299E-02 -0.8149934E-04  0.1539651E+05  0.4970686E+00 -0.7813847E-01 -0.2541548E-01  0.2925501E+05  0.1380456E+01  0.1241729E+00  0.3643579E-01  0.2177396E+05  0.7030545E+00
  0.6679438E+00  0.7838492E-03  0.2600270E-03  0.1539414E+05  0.4359612E+00 -0.2721913E-01 -0.7439739E-02  0.2925400E+05  0.1209865E+01  0.5369582E-01  0.1019484E-01  0.2177061E+05  0.6164718E+00
  0.6549624E+00 -0.1509950E-02 -0.8514756E-04  0.1539186E+05  0.3835849E+00  0.2822456E-01  0.7282145E-02  0.2925309E+05  0.1063476E+01 -0.2691991E-01 -0.1023522E-01  0.2176739E+05  0.5424660E+00
  0.6424763E+00 -0.6412490E-03  0.5646265E-04  0.1539292E+05  0.3369831E+00  0.3376948E-01  0.8325673E-02  0.2925348E+05  0.9363170E+00 -0.3855807E-01 -0.1180196E-01  0.2176888E+05  0.4765767E+00
  0.6304572E+00 -0.9862614E-03 -0.2039194E-03  0.1539067E+05  0.2978459E+00  0.2879218E-01  0.6535866E-02  0.2924971E+05  0.8276556E+00 -0.3517262E-01 -0.9056823E-02  0.2176569E+05  0.4211639E+00
  0.6188794E+00 -0.9939254E-03  0.1918990E-05  0.1538917E+05  0.2630312E+00  0.2567871E-01  0.5381193E-02  0.2924733E+05  0.7314975E+00 -0.3619429E-01 -0.7673133E-02  0.2176358E+05  0.3720382E+00
  0.6077194E+00  0.2730525E-03 -0.1403096E-04  0.1538697E+05  0.2327742E+00  0.2091206E-01  0.3635762E-02  0.2924508E+05  0.6471837E+00 -0.4308581E-01 -0.5264576E-02  0.2176048E+05  0.3292455E+00
  0.5969545E+00 -0.1174211E-02 -0.1155667E-04  0.1538637E+05  0.2064181E+00  0.3002785E-01  0.4886790E-02  0.2924437E+05  0.5741282E+00 -0.4613771E-01 -0.6969031E-02  0.2175961E+05  0.2918656E+00
  0.5865645E+00 -0.1623426E-02 -0.6504898E-04  0.1538816E+05  0.1831453E+00  0.1812514E-01  0.2879047E-02  0.2924516E+05  0.5106609E+00 -0.3447483E-01 -0.4046095E-02  0.2176214E+05  0.2589305E+00
  0.5765300E+00 -0.8163293E-03 -0.5677840E-04  0.1538735E+05  0.1631260E+00  0.1891700E-01  0.2640963E-02  0.2924343E+05  0.4554030E+00 -0.3704663E-01 -0.3741353E-02  0.2176100E+05  0.2306777E+00
  0.5668330E+00 -0.1954178E-02 -0.1667961E-04  0.1538749E+05  0.1457559E+00  0.3020017E-01  0.3892682E-02  0.2924420E+05  0.4071953E+00 -0.4605231E-01 -0.5615916E-02  0.2176120E+05  0.2062037E+00
  0.5574569E+00 -0.3327426E-03 -0.6805960E-04  0.1538634E+05  0.1308423E+00  0.2117235E-01  0.2470883E-02  0.2924218E+05  0.3656646E+00 -0.3325715E-01 -0.3425492E-02  0.2175959E+05  0.1849567E+00
  0.5483858E+00 -0.1248643E-02 -0.6229500E-04  0.1538880E+05  0.1172030E+00  0.1278555E-01  0.1391915E-02  0.2924587E+05  0.3281342E+00 -0.2415898E-01 -0.1910728E-02  0.2176304E+05  0.1657928E+00
  0.5396053E+00 -0.1384723E-02 -0.2324744E-04  0.1538573E+05  0.1058659E+00  0.1566230E-01  0.1457136E-02  0.2924435E+05  0.2958034E+00 -0.2699812E-01 -0.2045621E-02  0.2175872E+05  0.1496834E+00
  0.5311014E+00 -0.1993176E-03 -0.5615124E-04  0.1538431E+05  0.9551427E-01  0.6115997E-02  0.4325540E-03  0.2924501E+05  0.2666268E+00 -0.1508349E-01 -0.5548049E-03  0.2175669E+05  0.1350190E+00
  0.5228614E+00  0.1395324E-03 -0.4647528E-04  0.1538291E+05  0.8635278E-01  0.1759385E-01  0.1447662E-02  0.2924623E+05  0.2405835E+00 -0.2789188E-01 -0.2003895E-02  0.2175472E+05  0.1220744E+00
  0.5148733E+00 -0.1030777E-02  0.2281007E-04  0.1538182E+05  0.7830656E-01  0.1846323E-01  0.1527120E-02  0.2924699E+05  0.2179874E+00 -0.2218255E-01 -0.2223422E-02  0.2175319E+05  0.1107934E+00
  0.5071256E+00  0.2294269E-03 -0.4016655E-04  0.1538095E+05  0.7111281E-01  0.2600046E-01  0.1916707E-02  0.2924658E+05  0.1979205E+00 -0.4402740E-01 -0.2701235E-02  0.2175195E+05  0.1005944E+00
  0.4996075E+00 -0.8656620E-03  0.1811393E-05  0.1538249E+05  0.6458376E-01  0.6387001E-02  0.4927092E-03  0.2924827E+05  0.1799741E+00 -0.5146251E-02 -0.7231153E-03  0.2175413E+05  0.9135775E-01
  0.4923092E+00 -0.3758062E-03 -0.2363090E-04  0.1538213E+05  0.5892979E-01  0.1029786E-01  0.6854963E-03  0.2924676E+05  0.1643384E+00 -0.1269217E-01 -0.9340541E-03  0.2175364E+05  0.8332857E-01
  0.4852209E+00 -0.1124234E-02  0.8658462E-05  0.1538183E+05  0.5380839E-01  0.3061768E-01  0.1925365E-02  0.2924649E+05  0.1501792E+00 -0.5421479E-01 -0.2728883E-02  0.2175319E+05  0.7605789E-01
  0.4783339E+00 -0.1365713E-02 -0.7058537E-05  0.1538151E+05  0.4932852E-01  0.2552388E-01  0.1597749E-02  0.2924561E+05  0.1376885E+00 -0.3540088E-01 -0.2284464E-02  0.2175275E+05  0.6974466E-01
  0.4716397E+00 -0.8583560E-03 -0.1496640E-04  0.1538091E+05  0.4538742E-01  0.1091497E-01  0.6043606E-03  0.2924415E+05  0.1266859E+00 -0.1620867E-01 -0.8389798E-03  0.2175189E+05  0.6414905E-01
  0.4651302E+00 -0.6991654E-03 -0.4951427E-04  0.1538308E+05  0.4173999E-01  0.2093806E-01  0.1127872E-02  0.2924624E+05  0.1166917E+00 -0.3694710E-01 -0.1537331E-02  0.2175496E+05  0.5905184E-01
  0.4587980E+00 -0.1244064E-02 -0.2454627E-04  0.1538230E+05  0.3842746E-01  0.3014023E-01  0.1541770E-02  0.2924521E+05  0.1075364E+00 -0.4751763E-01 -0.2137461E-02  0.2175385E+05  0.5434652E-01
  0.4526359E+00 -0.1927845E-02 -0.1973754E-04  0.1538158E+05  0.3557304E-01  0.2990162E-01  0.1493269E-02  0.2924425E+05  0.9944788E-01 -0.4020032E-01 -0.2088675E-02  0.2175284E+05  0.5030007E-01
  0.4466371E+00 -0.3896800E-03 -0.2827975E-04  0.1538136E+05  0.3287889E-01  0.2035304E-01  0.9410163E-03  0.2924372E+05  0.9205581E-01 -0.3111462E-01 -0.1271665E-02  0.2175252E+05  0.4653922E-01
  0.4407952E+00 -0.1158571E-02 -0.2726832E-04  0.1538065E+05  0.3046177E-01  0.2745089E-01  0.1242514E-02  0.2924431E+05  0.8517930E-01 -0.4483703E-01 -0.1745234E-02  0.2175152E+05  0.4307370E-01
  0.4351042E+00 -0.1384140E-02 -0.6623086E-05  0.1537981E+05  0.2826942E-01  0.2472384E-01  0.1044283E-02  0.2924403E+05  0.7903625E-01 -0.3813784E-01 -0.1493252E-02  0.2175033E+05  0.3996816E-01
  0.4295583E+00 -0.1329856E-02  0.2204796E-04  0.1538009E+05  0.2629201E-01  0.2902151E-01  0.1187736E-02  0.2924506E+05  0.7350191E-01 -0.4782155E-01 -0.1726053E-02  0.2175073E+05  0.3719098E-01
  0.4241519E+00 -0.1522185E-02 -0.1676999E-05  0.1537971E+05  0.2448794E-01  0.3491357E-01  0.1369900E-02  0.2924472E+05  0.6850963E-01 -0.5489758E-01 -0.1951538E-02  0.2175021E+05  0.3464939E-01
  0.4188800E+00 -0.2128737E-03 -0.2421134E-04  0.1538089E+05  0.2278492E-01  0.1882396E-01  0.7017020E-03  0.2924666E+05  0.6376082E-01 -0.3018937E-01 -0.9382763E-03  0.2175187E+05  0.3222717E-01
Zone t="Motion of body    1 in DoF   3",I=    60,F=POINT
  0.1570800E+01  0.3399908E-02  0.6980896E-03  0.5770130E-02 -0.2632141E-03  0.2517142E+05 -0.5019356E+05  0.2605301E-01  0.1403809E-02 -0.3559772E+05  0.7098434E+05 -0.1003459E-01 -0.3047943E-02
  0.1500845E+01 -0.3965052E-02  0.8163452E-03  0.4066720E-04 -0.5187988E-02  0.2844188E+05 -0.5307539E+05 -0.6140747E-02 -0.3044128E-02 -0.4022272E+05  0.7505981E+05 -0.1256616E-01  0.4468918E-02
  0.1436856E+01  0.7476175E-02 -0.1519012E-01  0.2633652E-02  0.5264282E-03  0.3196158E+05 -0.5661913E+05  0.6541653E-02  0.3585815E-02 -0.4520014E+05  0.8007117E+05  0.4120392E-02 -0.1067734E-01
  0.1378100E+01  0.1071802E-01 -0.1596832E-01  0.3786739E-02 -0.6713867E-02  0.3575302E+05 -0.6089604E+05 -0.5447590E-02 -0.8666992E-02 -0.5056288E+05  0.8611895E+05 -0.1552342E-01 -0.1110840E-01
  0.1323960E+01 -0.1475214E-01 -0.1388550E-02 -0.1034955E-01 -0.7858276E-02  0.3980952E+05 -0.6599685E+05  0.2189771E-01 -0.1628113E-01 -0.5629944E+05  0.9333367E+05  0.1336913E-02  0.1581573E-01
  0.1273913E+01  0.5102580E-02  0.4287720E-02 -0.6827397E-02 -0.1464844E-02  0.4408456E+05 -0.7215035E+05 -0.1734398E-01 -0.5752563E-02 -0.6234519E+05  0.1020361E+06  0.6755529E-02 -0.5958557E-02
  0.1227513E+01 -0.2252434E-01  0.4364014E-02  0.1496651E-01  0.7171631E-03  0.4843937E+05 -0.7948129E+05 -0.8950070E-03  0.1168823E-01 -0.6850371E+05  0.1124035E+06  0.1454386E-02  0.6835938E-02
  0.1184373E+01  0.1386257E-01 -0.6896973E-02  0.4122698E-02 -0.2914429E-02  0.5281037E+05 -0.8797638E+05  0.1494478E-02 -0.7324219E-03 -0.7468538E+05  0.1244174E+06 -0.3085582E-01 -0.1544189E-01
  0.1144163E+01 -0.2896623E-01 -0.2407837E-01  0.3126006E-01 -0.1562500E-01  0.5676400E+05 -0.9813909E+05  0.4091547E-01 -0.1019287E-01 -0.8027641E+05  0.1387897E+06 -0.2187137E-01 -0.3041077E-01
  0.1106593E+01 -0.2537172E-02 -0.2746582E-02  0.3805758E-02  0.1235962E-01  0.5972502E+05 -0.1102770E+06 -0.3971227E-02 -0.2172852E-01 -0.8446390E+05  0.1559553E+06  0.7487416E-02 -0.4577637E-04
  0.1071413E+01  0.1310240E-02  0.4028320E-01 -0.8943815E-02  0.1068115E-01  0.6104072E+05 -0.1244221E+06  0.3423715E-01 -0.2667236E-01 -0.8632451E+05  0.1759595E+06  0.3248541E-01  0.3265381E-01
  0.1038400E+01 -0.2938904E-03 -0.2416992E-01  0.3820575E-02  0.1147461E-01  0.5986264E+05 -0.1403508E+06  0.2739058E-01  0.4724121E-01 -0.8465846E+05  0.1984861E+06  0.4587629E-01  0.3620911E-01
  0.1007361E+01  0.1211783E-01  0.7324219E-03 -0.6422450E-02 -0.1745605E-01  0.5499973E+05 -0.1577310E+06  0.3738351E-01 -0.1550293E-01 -0.7778130E+05  0.2230652E+06 -0.7891737E-02  0.1513672E-01
  0.9781234E+00  0.1572486E-01  0.5584717E-01  0.5366422E-02  0.2947998E-01  0.4480909E+05 -0.1756200E+06  0.7737632E-02 -0.2813721E-01 -0.6336960E+05  0.2483643E+06  0.6474026E-02  0.2362061E-01
  0.9505354E+00 -0.1553915E-01  0.2825928E-01  0.6485346E-02  0.2374268E-01  0.2775148E+05 -0.1923594E+06 -0.8989588E-02 -0.1318359E-01 -0.3924650E+05  0.2720374E+06 -0.1979315E-01  0.9765625E-02
  0.9244608E+00  0.2673909E-02  0.2526855E-01  0.1086069E-01  0.4254150E-01  0.3439347E+04 -0.2054080E+06  0.2812556E-01 -0.3662109E-02 -0.4863871E+04  0.2904909E+06 -0.5298300E-02  0.3982544E-01
  0.8997786E+00  0.3561260E-03 -0.4046631E-01  0.4409179E-02 -0.1434326E-01 -0.2719278E+05 -0.2120937E+06  0.1533038E-01  0.5212402E-01  0.3845651E+05  0.2999459E+06  0.1348191E-02 -0.7385254E-01
  0.8763802E+00 -0.1828171E-03  0.1501465E-01  0.2098044E-02 -0.1672363E-01 -0.6151338E+05 -0.2106039E+06  0.4109032E-02 -0.1054688E+00  0.8699317E+05  0.2978391E+06  0.5101467E-02 -0.1736450E-01
  0.8541677E+00  0.5082287E-02  0.6079102E-01 -0.2286582E-02 -0.4101562E-01 -0.9540788E+05 -0.2007747E+06  0.2170467E-02 -0.1098633E+00  0.1349272E+06  0.2839384E+06  0.1451444E-02 -0.5535889E-01
  0.8330535E+00  0.1778551E-01  0.9997559E-01  0.3150472E-02 -0.1605225E-01 -0.1252854E+06 -0.1838505E+06  0.5311842E-02  0.1464844E-01  0.1771805E+06  0.2600041E+06  0.3855665E-02  0.4544067E-01
  0.8129578E+00  0.1674237E-01  0.8117676E-02  0.9234580E-02 -0.2075195E-01 -0.1484117E+06 -0.1639117E+06 -0.3919066E-01 -0.1147461E-01  0.2098861E+06  0.2318063E+06  0.4232516E-01  0.7333374E-01
  0.7938089E+00  0.1941447E-01  0.3723145E-01  0.3490760E-01 -0.5261230E-01 -0.1644954E+06 -0.1429417E+06 -0.1856869E-01  0.1910400E-01  0.2326318E+06  0.2021501E+06  0.1537780E-02  0.2239990E-01
  0.7755414E+00  0.5548354E-02  0.4150391E-02  0.2164252E-02  0.6469727E-02 -0.1743221E+06 -0.1229131E+06  0.4312763E-01  0.5358887E-01  0.2465290E+06  0.1738254E+06  0.7468636E-01 -0.2349854E-02
  0.7580957E+00 -0.1457252E-01 -0.1232910E-01  0.1835654E-01 -0.9155273E-03 -0.1794979E+06 -0.1052437E+06  0.3518337E-01  0.1538086E-01  0.2538483E+06  0.1488371E+06  0.9983382E-02 -0.2319336E-02
  0.7414176E+00 -0.5774906E-01  0.2484131E-01 -0.1267763E-01 -0.2935791E-01 -0.1811371E+06 -0.8983491E+05  0.2222701E-01  0.1770020E-02  0.2561667E+06  0.1270458E+06  0.2702228E-01 -0.9480286E-01
  0.7254575E+00  0.3457880E-01  0.1724243E-01 -0.1219933E-02 -0.1788330E-01 -0.1802922E+06 -0.7660646E+05  0.7025133E-01 -0.3112793E-02  0.2549716E+06  0.1083378E+06  0.1581707E-01  0.2359009E-01
  0.7101701E+00 -0.1207519E-01  0.2297974E-01  0.1456758E-01  0.1324463E-01 -0.1779316E+06 -0.6543867E+05  0.7459976E-01  0.3112793E-01  0.2516334E+06  0.9254428E+05 -0.2198029E-01 -0.6076050E-01
  0.6955137E+00 -0.2391338E-01  0.1647949E-01 -0.7020440E-02  0.5737305E-02 -0.1742880E+06 -0.5593650E+05  0.4142060E-01 -0.2160645E-01  0.2464805E+06  0.7910611E+05 -0.8676825E-01  0.6256104E-02
  0.6814499E+00 -0.6807062E-02  0.1800537E-02  0.5897961E-01 -0.4882812E-02 -0.1707045E+06 -0.4832821E+05  0.1038973E-01 -0.2075195E-02  0.2414128E+06  0.6834644E+05 -0.1122717E+00 -0.2268982E-01
  0.6679438E+00 -0.3847001E-01 -0.2593994E-02 -0.1032568E-01 -0.2572632E-01 -0.1666407E+06 -0.4188263E+05 -0.7538659E-01  0.2923584E-01  0.2356656E+06  0.5923096E+05 -0.3191366E-01 -0.9635925E-02
  0.6549624E+00  0.6821420E-01  0.1571655E-02  0.4459084E-01  0.2517700E-02 -0.1625216E+06 -0.3649122E+05  0.9225691E-02  0.3509521E-01  0.2298402E+06  0.5160639E+05  0.5530755E-01  0.3509521E-03